Program Version,EnergyPlus, Version 9.1.0-fafb9d5652, YMD=2020.03.22 22:57
1,5,Environment Title[],Latitude[deg],Longitude[deg],Time Zone[],Elevation[m]
2,8,Day of Simulation[],Month[],Day of Month[],DST Indicator[1=yes 0=no],Hour[],StartMinute[],EndMinute[],DayType
3,5,Cumulative Day of Simulation[],Month[],Day of Month[],DST Indicator[1=yes 0=no],DayType  ! When Daily Report Variables Requested
4,2,Cumulative Days of Simulation[],Month[]  ! When Monthly Report Variables Requested
5,1,Cumulative Days of Simulation[] ! When Run Period Report Variables Requested
6,1,Calendar Year of Simulation[] ! When Annual Report Variables Requested
7,9,Environment,Site Outdoor Air Drybulb Temperature [C] !Monthly [Value,Min,Day,Hour,Minute,Max,Day,Hour,Minute]
8,1,Environment,Site Outdoor Air Wetbulb Temperature [C] !TimeStep
403,1,ZONE OFFICE WHOLEBUILDING - SM OFFICE  - STORY GROUND,Zone Air Temperature [C] !Hourly
404,7,ZONE OFFICE WHOLEBUILDING - SM OFFICE  - STORY GROUND,Zone Air Relative Humidity [%] !Daily [Value,Min,Hour,Minute,Max,Hour,Minute]
10,1,Electricity:Facility [J] !TimeStep
169,1,Gas:Facility [J] !TimeStep
End of Data Dictionary
1,DENVER CENTENNIAL  GOLDEN   N ANN CLG .4% CONDNS DB=>MWB 1,  39.74,-105.18,  -7.00,1829.00
2,1, 7,21, 0, 1, 0.00,60.00,SummerDesignDay
8,11.15397062550071
10,20138542.884273657
169,0.0
2,1, 7,21, 0, 1, 0.00,60.00,SummerDesignDay
403,23.889178474007474
2,1, 7,21, 0, 2, 0.00,60.00,SummerDesignDay
8,10.92745699590936
10,19922869.792563246
169,681761.7911406888
2,1, 7,21, 0, 2, 0.00,60.00,SummerDesignDay
403,23.889216310454818
2,1, 7,21, 0, 3, 0.00,60.00,SummerDesignDay
8,10.756320373962464
10,19751594.375111116
169,1548819.513401123
2,1, 7,21, 0, 3, 0.00,60.00,SummerDesignDay
403,23.889247929148607
2,1, 7,21, 0, 4, 0.00,60.00,SummerDesignDay
8,10.584087228911649
10,19589065.374562429
169,1548819.513401123
2,1, 7,21, 0, 4, 0.00,60.00,SummerDesignDay
403,23.889276977543849
2,1, 7,21, 0, 5, 0.00,60.00,SummerDesignDay
8,10.468660294393305
10,19464320.239693285
169,947301.4912112538
2,1, 7,21, 0, 5, 0.00,60.00,SummerDesignDay
403,23.88930176974796
2,1, 7,21, 0, 6, 0.00,60.00,SummerDesignDay
8,10.584087228911649
10,17251007.263056347
169,0.0
2,1, 7,21, 0, 6, 0.00,60.00,SummerDesignDay
403,23.88920167823248
2,1, 7,21, 0, 7, 0.00,60.00,SummerDesignDay
8,10.984266681195179
10,18270723.51779112
169,1283127.0826128703
2,1, 7,21, 0, 7, 0.00,60.00,SummerDesignDay
403,23.88900704610039
2,1, 7,21, 0, 8, 0.00,60.00,SummerDesignDay
8,11.932055717348942
10,19668812.905455788
169,1548819.513401123
2,1, 7,21, 0, 8, 0.00,60.00,SummerDesignDay
403,23.88873961922978
2,1, 7,21, 0, 9, 0.00,60.00,SummerDesignDay
8,12.952857768753026
10,21226129.838830104
169,1548819.513401123
2,1, 7,21, 0, 9, 0.00,60.00,SummerDesignDay
403,23.88846458973968
2,1, 7,21, 0,10, 0.00,60.00,SummerDesignDay
8,13.833688757311478
10,22765381.424891399
169,1548819.513401123
2,1, 7,21, 0,10, 0.00,60.00,SummerDesignDay
403,23.888384238595607
2,1, 7,21, 0,11, 0.00,60.00,SummerDesignDay
8,14.58675236703979
10,24076572.10832056
169,1548819.513401123
2,1, 7,21, 0,11, 0.00,60.00,SummerDesignDay
403,23.888157023591157
2,1, 7,21, 0,12, 0.00,60.00,SummerDesignDay
8,15.076768155641556
10,24901316.129830108
169,1548819.513401123
2,1, 7,21, 0,12, 0.00,60.00,SummerDesignDay
403,23.888093505812
2,1, 7,21, 0,13, 0.00,60.00,SummerDesignDay
8,15.46210483123339
10,25611351.25571067
169,1548819.513401123
2,1, 7,21, 0,13, 0.00,60.00,SummerDesignDay
403,23.888027024772684
2,1, 7,21, 0,14, 0.00,60.00,SummerDesignDay
8,15.699995481295467
10,26306084.62139002
169,1548819.513401123
2,1, 7,21, 0,14, 0.00,60.00,SummerDesignDay
403,23.887972052999055
2,1, 7,21, 0,15, 0.00,60.00,SummerDesignDay
8,15.699995481295467
10,26433548.85593253
169,1548819.513401123
2,1, 7,21, 0,15, 0.00,60.00,SummerDesignDay
403,23.887958743618797
2,1, 7,21, 0,16, 0.00,60.00,SummerDesignDay
8,15.41425180523316
10,25742545.637871919
169,1548819.513401123
2,1, 7,21, 0,16, 0.00,60.00,SummerDesignDay
403,23.888014417046244
2,1, 7,21, 0,17, 0.00,60.00,SummerDesignDay
8,15.028192925782509
10,24730089.46279373
169,1548819.513401123
2,1, 7,21, 0,17, 0.00,60.00,SummerDesignDay
403,23.888206841834739
2,1, 7,21, 0,18, 0.00,60.00,SummerDesignDay
8,14.53722336202167
10,23537777.6036518
169,1548819.513401123
2,1, 7,21, 0,18, 0.00,60.00,SummerDesignDay
403,23.888529306366089
2,1, 7,21, 0,19, 0.00,60.00,SummerDesignDay
8,13.782690847896104
10,21681084.910094587
169,1548819.513401123
2,1, 7,21, 0,19, 0.00,60.00,SummerDesignDay
403,23.888582878482507
2,1, 7,21, 0,20, 0.00,60.00,SummerDesignDay
8,13.215029529540324
10,23819046.637480383
169,1548819.513401123
2,1, 7,21, 0,20, 0.00,60.00,SummerDesignDay
403,23.888799845591995
2,1, 7,21, 0,21, 0.00,60.00,SummerDesignDay
8,12.741211972216517
10,22987567.677279694
169,1548819.513401123
2,1, 7,21, 0,21, 0.00,60.00,SummerDesignDay
403,23.888934008518885
2,1, 7,21, 0,22, 0.00,60.00,SummerDesignDay
8,12.258686716744988
10,22468695.02644547
169,1548819.513401123
2,1, 7,21, 0,22, 0.00,60.00,SummerDesignDay
403,23.889018948981869
2,1, 7,21, 0,23, 0.00,60.00,SummerDesignDay
8,11.877217274957952
10,22094770.33534857
169,1548819.513401123
2,1, 7,21, 0,23, 0.00,60.00,SummerDesignDay
403,23.889078357808456
2,1, 7,21, 0,24, 0.00,60.00,SummerDesignDay
8,11.490207614865766
10,21749133.531177027
169,1548819.513401123
2,1, 7,21, 0,24, 0.00,60.00,SummerDesignDay
403,23.889131819117098
3,1, 7,21, 0,SummerDesignDay
404,35.393249851040419,34.71590968124087, 8,60,36.20608003491756,17,60
4,1, 7
7,24.849,17.8,21, 5,60,33.0,21,14,60
1,DENVER CENTENNIAL  GOLDEN   N ANN CLG .4% CONDNS WB=>MDB 1,  39.74,-105.18,  -7.00,1829.00
2,1, 7,21, 0, 1, 0.00,60.00,SummerDesignDay
8,13.923995971679688
10,18819807.946013288
169,0.0
2,1, 7,21, 0, 1, 0.00,60.00,SummerDesignDay
403,23.88879385089414
2,1, 7,21, 0, 2, 0.00,60.00,SummerDesignDay
8,13.315994262695313
10,18611269.724227385
169,681761.7911406888
2,1, 7,21, 0, 2, 0.00,60.00,SummerDesignDay
403,23.888965432667605
2,1, 7,21, 0, 3, 0.00,60.00,SummerDesignDay
8,12.859992980957032
10,18445575.47778371
169,1548819.513401123
2,1, 7,21, 0, 3, 0.00,60.00,SummerDesignDay
403,23.889122980089927
2,1, 7,21, 0, 4, 0.00,60.00,SummerDesignDay
8,12.403996897928592
10,18298688.898861037
169,1548819.513401123
2,1, 7,21, 0, 4, 0.00,60.00,SummerDesignDay
403,23.889215427515429
2,1, 7,21, 0, 5, 0.00,60.00,SummerDesignDay
8,12.099995097522145
10,18163072.704885249
169,947301.4912112538
2,1, 7,21, 0, 5, 0.00,60.00,SummerDesignDay
403,23.889380836411087
2,1, 7,21, 0, 6, 0.00,60.00,SummerDesignDay
8,12.403996897928592
10,15977500.932185173
169,0.0
2,1, 7,21, 0, 6, 0.00,60.00,SummerDesignDay
403,23.88948268711961
2,1, 7,21, 0, 7, 0.00,60.00,SummerDesignDay
8,13.467993842889325
10,17007499.34465311
169,1283127.0826128703
2,1, 7,21, 0, 7, 0.00,60.00,SummerDesignDay
403,23.88937449725454
2,1, 7,21, 0, 8, 0.00,60.00,SummerDesignDay
8,15.026980912861477
10,18551527.71430224
169,1548819.513401123
2,1, 7,21, 0, 8, 0.00,60.00,SummerDesignDay
403,23.88900607223855
2,1, 7,21, 0, 9, 0.00,60.00,SummerDesignDay
8,15.937089718832825
10,20146271.928644293
169,1548819.513401123
2,1, 7,21, 0, 9, 0.00,60.00,SummerDesignDay
403,23.888373533652329
2,1, 7,21, 0,10, 0.00,60.00,SummerDesignDay
8,16.72459186739077
10,21633891.476854508
169,1548819.513401123
2,1, 7,21, 0,10, 0.00,60.00,SummerDesignDay
403,23.887651285073916
2,1, 7,21, 0,11, 0.00,60.00,SummerDesignDay
8,17.399496008481628
10,22779738.401774497
169,1548819.513401123
2,1, 7,21, 0,11, 0.00,60.00,SummerDesignDay
403,23.8870776763964
2,1, 7,21, 0,12, 0.00,60.00,SummerDesignDay
8,17.839477247828787
10,23380199.92634571
169,1548819.513401123
2,1, 7,21, 0,12, 0.00,60.00,SummerDesignDay
403,23.886741124027468
2,1, 7,21, 0,13, 0.00,60.00,SummerDesignDay
8,18.185914819295033
10,23909651.86758318
169,1548819.513401123
2,1, 7,21, 0,13, 0.00,60.00,SummerDesignDay
403,23.88653665167003
2,1, 7,21, 0,14, 0.00,60.00,SummerDesignDay
8,18.399989103499605
10,24482363.36590312
169,1548819.513401123
2,1, 7,21, 0,14, 0.00,60.00,SummerDesignDay
403,23.886337364383654
2,1, 7,21, 0,15, 0.00,60.00,SummerDesignDay
8,18.399989103499605
10,24573688.563050864
169,1548819.513401123
2,1, 7,21, 0,15, 0.00,60.00,SummerDesignDay
403,23.886202942137236
2,1, 7,21, 0,16, 0.00,60.00,SummerDesignDay
8,18.142873268396757
10,23948577.472359476
169,1548819.513401123
2,1, 7,21, 0,16, 0.00,60.00,SummerDesignDay
403,23.886252279769825
2,1, 7,21, 0,17, 0.00,60.00,SummerDesignDay
8,17.79583170118241
10,22988641.650158306
169,1548819.513401123
2,1, 7,21, 0,17, 0.00,60.00,SummerDesignDay
403,23.886444959021494
2,1, 7,21, 0,18, 0.00,60.00,SummerDesignDay
8,17.35506872127216
10,21835017.465549016
169,1548819.513401123
2,1, 7,21, 0,18, 0.00,60.00,SummerDesignDay
403,23.886738484253376
2,1, 7,21, 0,19, 0.00,60.00,SummerDesignDay
8,16.678946649841046
10,20063040.768815746
169,1548819.513401123
2,1, 7,21, 0,19, 0.00,60.00,SummerDesignDay
403,23.887184426368287
2,1, 7,21, 0,20, 0.00,60.00,SummerDesignDay
8,16.17127464663612
10,22305380.05828145
169,1548819.513401123
2,1, 7,21, 0,20, 0.00,60.00,SummerDesignDay
403,23.887740732035938
2,1, 7,21, 0,21, 0.00,60.00,SummerDesignDay
8,15.748172556581446
10,21544527.282430147
169,1548819.513401123
2,1, 7,21, 0,21, 0.00,60.00,SummerDesignDay
403,23.888107715809693
2,1, 7,21, 0,22, 0.00,60.00,SummerDesignDay
8,15.317908014352805
10,21069610.73955852
169,1548819.513401123
2,1, 7,21, 0,22, 0.00,60.00,SummerDesignDay
403,23.888322164952606
2,1, 7,21, 0,23, 0.00,60.00,SummerDesignDay
8,14.978172949417762
10,20733142.90331151
169,1548819.513401123
2,1, 7,21, 0,23, 0.00,60.00,SummerDesignDay
403,23.88848824610616
2,1, 7,21, 0,24, 0.00,60.00,SummerDesignDay
8,14.633880152931229
10,20416020.69625952
169,1548819.513401123
2,1, 7,21, 0,24, 0.00,60.00,SummerDesignDay
403,23.888624386085387
3,1, 7,21, 0,SummerDesignDay
404,47.5374945651214,43.68407032094127,16,60,51.408938510424068, 5,60
4,1, 7
7,19.149,12.100000000000002,21, 5,60,27.3,21,14,60
1,DENVER CENTENNIAL  GOLDEN   N ANN HTG 99.6% CONDNS DB 1,  39.74,-105.18,  -7.00,1829.00
2,1,12,21, 0, 1, 0.00,60.00,WinterDesignDay
8,-18.8
10,5903067.7625072649
169,50634870.75250965
2,1,12,21, 0, 1, 0.00,60.00,WinterDesignDay
403,21.11000000000028
2,1,12,21, 0, 2, 0.00,60.00,WinterDesignDay
8,-18.8
10,5903067.7625072649
169,51316634.65254301
2,1,12,21, 0, 2, 0.00,60.00,WinterDesignDay
403,21.109999999999816
2,1,12,21, 0, 3, 0.00,60.00,WinterDesignDay
8,-18.8
10,5903067.7625072649
169,52183694.38905078
2,1,12,21, 0, 3, 0.00,60.00,WinterDesignDay
403,21.10999999999994
2,1,12,21, 0, 4, 0.00,60.00,WinterDesignDay
8,-18.8
10,5903067.7625072649
169,52183696.31288444
2,1,12,21, 0, 4, 0.00,60.00,WinterDesignDay
403,21.109999999999979
2,1,12,21, 0, 5, 0.00,60.00,WinterDesignDay
8,-18.8
10,5903067.7625072649
169,51582180.12818385
2,1,12,21, 0, 5, 0.00,60.00,WinterDesignDay
403,21.110000000000267
2,1,12,21, 0, 6, 0.00,60.00,WinterDesignDay
8,-18.8
10,5903067.7625072649
169,50634880.3919879
2,1,12,21, 0, 6, 0.00,60.00,WinterDesignDay
403,21.109999999999535
2,1,12,21, 0, 7, 0.00,60.00,WinterDesignDay
8,-18.8
10,7217601.900519667
169,51918009.15085831
2,1,12,21, 0, 7, 0.00,60.00,WinterDesignDay
403,21.11000000000012
2,1,12,21, 0, 8, 0.00,60.00,WinterDesignDay
8,-18.8
10,3174795.06955367
169,52183703.18266236
2,1,12,21, 0, 8, 0.00,60.00,WinterDesignDay
403,21.110000000000317
2,1,12,21, 0, 9, 0.00,60.00,WinterDesignDay
8,-18.8
10,3174795.06955367
169,52183704.711825
2,1,12,21, 0, 9, 0.00,60.00,WinterDesignDay
403,21.109999999999837
2,1,12,21, 0,10, 0.00,60.00,WinterDesignDay
8,-18.8
10,3174795.06955367
169,52183706.17236557
2,1,12,21, 0,10, 0.00,60.00,WinterDesignDay
403,21.110000000000228
2,1,12,21, 0,11, 0.00,60.00,WinterDesignDay
8,-18.8
10,3174795.06955367
169,52183707.567352179
2,1,12,21, 0,11, 0.00,60.00,WinterDesignDay
403,21.109999999999805
2,1,12,21, 0,12, 0.00,60.00,WinterDesignDay
8,-18.8
10,3174795.06955367
169,52183708.899743039
2,1,12,21, 0,12, 0.00,60.00,WinterDesignDay
403,21.110000000000217
2,1,12,21, 0,13, 0.00,60.00,WinterDesignDay
8,-18.8
10,3174795.06955367
169,52183710.17232895
2,1,12,21, 0,13, 0.00,60.00,WinterDesignDay
403,21.109999999999798
2,1,12,21, 0,14, 0.00,60.00,WinterDesignDay
8,-18.8
10,3174795.06955367
169,52183711.3878156
2,1,12,21, 0,14, 0.00,60.00,WinterDesignDay
403,21.109999999999933
2,1,12,21, 0,15, 0.00,60.00,WinterDesignDay
8,-18.8
10,3174795.06955367
169,52183712.54874834
2,1,12,21, 0,15, 0.00,60.00,WinterDesignDay
403,21.109999999999986
2,1,12,21, 0,16, 0.00,60.00,WinterDesignDay
8,-18.8
10,3174795.06955367
169,52183713.65758766
2,1,12,21, 0,16, 0.00,60.00,WinterDesignDay
403,21.10999999999971
2,1,12,21, 0,17, 0.00,60.00,WinterDesignDay
8,-18.8
10,3174795.06955367
169,52183714.71666718
2,1,12,21, 0,17, 0.00,60.00,WinterDesignDay
403,21.110000000000178
2,1,12,21, 0,18, 0.00,60.00,WinterDesignDay
8,-18.8
10,7218129.207566084
169,52183715.72821684
2,1,12,21, 0,18, 0.00,60.00,WinterDesignDay
403,21.110000000000058
2,1,12,21, 0,19, 0.00,60.00,WinterDesignDay
8,-18.8
10,7218129.207566084
169,52183716.694377999
2,1,12,21, 0,19, 0.00,60.00,WinterDesignDay
403,21.110000000000296
2,1,12,21, 0,20, 0.00,60.00,WinterDesignDay
8,-18.8
10,7218129.207566084
169,52183717.617179099
2,1,12,21, 0,20, 0.00,60.00,WinterDesignDay
403,21.109999999999546
2,1,12,21, 0,21, 0.00,60.00,WinterDesignDay
8,-18.8
10,7218129.207566084
169,52183718.4985826
2,1,12,21, 0,21, 0.00,60.00,WinterDesignDay
403,21.109999999999848
2,1,12,21, 0,22, 0.00,60.00,WinterDesignDay
8,-18.8
10,7218129.207566084
169,52183719.34042998
2,1,12,21, 0,22, 0.00,60.00,WinterDesignDay
403,21.110000000000228
2,1,12,21, 0,23, 0.00,60.00,WinterDesignDay
8,-18.8
10,7217601.900519667
169,52183720.14450071
2,1,12,21, 0,23, 0.00,60.00,WinterDesignDay
403,21.109999999999525
2,1,12,21, 0,24, 0.00,60.00,WinterDesignDay
8,-18.8
10,7217601.900519667
169,52183720.91250134
2,1,12,21, 0,24, 0.00,60.00,WinterDesignDay
403,21.110000000000399
3,1,12,21, 0,WinterDesignDay
404,4.623636526283931,4.623636526283931, 1,60,4.623636526283933, 3,60
4,1,12
7,-18.800000000000009,-18.8,21, 1,60,-18.8,21, 1,60
End of Data
 Number of Records Written=         294
