Program Version,EnergyPlus, Version 9.3.0-baff08990c, YMD=2020.11.01 22:46
1,5,Environment Title[],Latitude[deg],Longitude[deg],Time Zone[],Elevation[m]
2,8,Day of Simulation[],Month[],Day of Month[],DST Indicator[1=yes 0=no],Hour[],StartMinute[],EndMinute[],DayType
3,5,Cumulative Day of Simulation[],Month[],Day of Month[],DST Indicator[1=yes 0=no],DayType  ! When Daily Report Variables Requested
4,2,Cumulative Days of Simulation[],Month[]  ! When Monthly Report Variables Requested
5,1,Cumulative Days of Simulation[] ! When Run Period Report Variables Requested
6,1,Calendar Year of Simulation[] ! When Annual Report Variables Requested
8,1,Electricity:Facility [J] !TimeStep
565,1,Gas:Facility [J] !TimeStep
End of Data Dictionary
1,DENVER CENTENNIAL  GOLDEN   N ANN CLG .4% CONDNS DB=>MWB 1 HVAC Sizing Pass 1,  39.74,-105.18,  -7.00,1829.00
2,1, 7,21, 0, 1, 0.00,60.00,SummerDesignDay
8,18301423.97869877
565,0.0
2,1, 7,21, 0, 2, 0.00,60.00,SummerDesignDay
8,18098754.544838005
565,681761.7911406888
2,1, 7,21, 0, 3, 0.00,60.00,SummerDesignDay
8,17936784.552244277
565,1548819.513401123
2,1, 7,21, 0, 4, 0.00,60.00,SummerDesignDay
8,17782665.236288545
565,1548819.513401123
2,1, 7,21, 0, 5, 0.00,60.00,SummerDesignDay
8,17662824.37757588
565,947301.4912112538
2,1, 7,21, 0, 6, 0.00,60.00,SummerDesignDay
8,15490006.412419897
565,0.0
2,1, 7,21, 0, 7, 0.00,60.00,SummerDesignDay
8,16218413.098666352
565,1283127.0826128703
2,1, 7,21, 0, 8, 0.00,60.00,SummerDesignDay
8,17440743.14060849
565,1548819.513401123
2,1, 7,21, 0, 9, 0.00,60.00,SummerDesignDay
8,18835029.17303458
565,1548819.513401123
2,1, 7,21, 0,10, 0.00,60.00,SummerDesignDay
8,20253861.371361067
565,1548819.513401123
2,1, 7,21, 0,11, 0.00,60.00,SummerDesignDay
8,21432492.13024722
565,1548819.513401123
2,1, 7,21, 0,12, 0.00,60.00,SummerDesignDay
8,22177268.33592276
565,1548819.513401123
2,1, 7,21, 0,13, 0.00,60.00,SummerDesignDay
8,22815396.51517953
565,1548819.513401123
2,1, 7,21, 0,14, 0.00,60.00,SummerDesignDay
8,23452321.61140234
565,1548819.513401123
2,1, 7,21, 0,15, 0.00,60.00,SummerDesignDay
8,23577072.896386479
565,1548819.513401123
2,1, 7,21, 0,16, 0.00,60.00,SummerDesignDay
8,22957399.56308051
565,1548819.513401123
2,1, 7,21, 0,17, 0.00,60.00,SummerDesignDay
8,22011791.789167305
565,1548819.513401123
2,1, 7,21, 0,18, 0.00,60.00,SummerDesignDay
8,20935493.566245784
565,1548819.513401123
2,1, 7,21, 0,19, 0.00,60.00,SummerDesignDay
8,19262864.686147799
565,1548819.513401123
2,1, 7,21, 0,20, 0.00,60.00,SummerDesignDay
8,21654558.476936517
565,1548819.513401123
2,1, 7,21, 0,21, 0.00,60.00,SummerDesignDay
8,21020208.87457556
565,1548819.513401123
2,1, 7,21, 0,22, 0.00,60.00,SummerDesignDay
8,20539085.55741064
565,1548819.513401123
2,1, 7,21, 0,23, 0.00,60.00,SummerDesignDay
8,20206199.442727735
565,1548819.513401123
2,1, 7,21, 0,24, 0.00,60.00,SummerDesignDay
8,19908065.423125827
565,1548819.513401123
1,DENVER CENTENNIAL  GOLDEN   N ANN CLG .4% CONDNS WB=>MDB 1 HVAC Sizing Pass 1,  39.74,-105.18,  -7.00,1829.00
2,1, 7,21, 0, 1, 0.00,60.00,SummerDesignDay
8,16982238.924137817
565,0.0
2,1, 7,21, 0, 2, 0.00,60.00,SummerDesignDay
8,16982238.924137817
565,1004387.6674607589
2,1, 7,21, 0, 3, 0.00,60.00,SummerDesignDay
8,16982238.924137817
565,1924609.9869565517
2,1, 7,21, 0, 4, 0.00,60.00,SummerDesignDay
8,16982238.924137817
565,1966562.7949951152
2,1, 7,21, 0, 5, 0.00,60.00,SummerDesignDay
8,16982238.924137817
565,1403197.588793754
2,1, 7,21, 0, 6, 0.00,60.00,SummerDesignDay
8,14253438.924137805
565,437657.08389560537
2,1, 7,21, 0, 7, 0.00,60.00,SummerDesignDay
8,14842435.40545262
565,1283127.0826128703
2,1, 7,21, 0, 8, 0.00,60.00,SummerDesignDay
8,16155281.511796585
565,1548819.513401123
2,1, 7,21, 0, 9, 0.00,60.00,SummerDesignDay
8,17757340.50678337
565,1548819.513401123
2,1, 7,21, 0,10, 0.00,60.00,SummerDesignDay
8,19237988.72056062
565,1548819.513401123
2,1, 7,21, 0,11, 0.00,60.00,SummerDesignDay
8,20344064.107452435
565,1548819.513401123
2,1, 7,21, 0,12, 0.00,60.00,SummerDesignDay
8,20885310.600356845
565,1548819.513401123
2,1, 7,21, 0,13, 0.00,60.00,SummerDesignDay
8,21349868.82095068
565,1548819.513401123
2,1, 7,21, 0,14, 0.00,60.00,SummerDesignDay
8,21869972.614469898
565,1548819.513401123
2,1, 7,21, 0,15, 0.00,60.00,SummerDesignDay
8,21950277.04337484
565,1548819.513401123
2,1, 7,21, 0,16, 0.00,60.00,SummerDesignDay
8,21370360.648335004
565,1548819.513401123
2,1, 7,21, 0,17, 0.00,60.00,SummerDesignDay
8,20478316.112711718
565,1548819.513401123
2,1, 7,21, 0,18, 0.00,60.00,SummerDesignDay
8,19414948.014290614
565,1548819.513401123
2,1, 7,21, 0,19, 0.00,60.00,SummerDesignDay
8,17790714.190762674
565,1548819.513401123
2,1, 7,21, 0,20, 0.00,60.00,SummerDesignDay
8,20394667.022281007
565,1548819.513401123
2,1, 7,21, 0,21, 0.00,60.00,SummerDesignDay
8,19623840.90552019
565,1548819.513401123
2,1, 7,21, 0,22, 0.00,60.00,SummerDesignDay
8,19099836.461692849
565,1548819.513401123
2,1, 7,21, 0,23, 0.00,60.00,SummerDesignDay
8,18719748.84101837
565,1548819.513401123
2,1, 7,21, 0,24, 0.00,60.00,SummerDesignDay
8,18296773.06215022
565,1548819.513401123
1,DENVER CENTENNIAL  GOLDEN   N ANN HTG 99.6% CONDNS DB 1 HVAC Sizing Pass 1,  39.74,-105.18,  -7.00,1829.00
2,1,12,21, 0, 1, 0.00,60.00,WinterDesignDay
8,5246238.92413778
565,53907124.86502883
2,1,12,21, 0, 2, 0.00,60.00,WinterDesignDay
8,5246238.92413778
565,54588979.91426665
2,1,12,21, 0, 3, 0.00,60.00,WinterDesignDay
8,5246238.92413778
565,55456126.71542417
2,1,12,21, 0, 4, 0.00,60.00,WinterDesignDay
8,5246238.92413778
565,55456211.80247976
2,1,12,21, 0, 5, 0.00,60.00,WinterDesignDay
8,5246238.92413778
565,54854775.05445935
2,1,12,21, 0, 6, 0.00,60.00,WinterDesignDay
8,5246238.92413778
565,53907551.19545952
2,1,12,21, 0, 7, 0.00,60.00,WinterDesignDay
8,6560773.062150183
565,55190752.43158849
2,1,12,21, 0, 8, 0.00,60.00,WinterDesignDay
8,2517966.2311841857
565,55456515.6931378
2,1,12,21, 0, 9, 0.00,60.00,WinterDesignDay
8,2517966.2311841857
565,55456583.35009029
2,1,12,21, 0,10, 0.00,60.00,WinterDesignDay
8,2517966.2311841857
565,55456647.97550111
2,1,12,21, 0,11, 0.00,60.00,WinterDesignDay
8,2517966.2311841857
565,55456709.70525773
2,1,12,21, 0,12, 0.00,60.00,WinterDesignDay
8,2517966.2311841857
565,55456768.669152859
2,1,12,21, 0,13, 0.00,60.00,WinterDesignDay
8,2517966.2311841857
565,55456824.99115952
2,1,12,21, 0,14, 0.00,60.00,WinterDesignDay
8,2517966.2311841857
565,55456878.78969142
2,1,12,21, 0,15, 0.00,60.00,WinterDesignDay
8,2517966.2311841857
565,55456930.17785261
2,1,12,21, 0,16, 0.00,60.00,WinterDesignDay
8,2517966.2311841857
565,55456979.26367592
2,1,12,21, 0,17, 0.00,60.00,WinterDesignDay
8,2517966.2311841857
565,55457026.15034949
2,1,12,21, 0,18, 0.00,60.00,WinterDesignDay
8,6561300.3691966
565,55457070.9364354
2,1,12,21, 0,19, 0.00,60.00,WinterDesignDay
8,6561300.3691966
565,55457113.71607584
2,1,12,21, 0,20, 0.00,60.00,WinterDesignDay
8,6561300.3691966
565,55457154.57919314
2,1,12,21, 0,21, 0.00,60.00,WinterDesignDay
8,6561300.3691966
565,55457193.6116773
2,1,12,21, 0,22, 0.00,60.00,WinterDesignDay
8,6561300.3691966
565,55457230.895567599
2,1,12,21, 0,23, 0.00,60.00,WinterDesignDay
8,6560773.062150183
565,55457266.509225558
2,1,12,21, 0,24, 0.00,60.00,WinterDesignDay
8,6560773.062150183
565,55457300.52749984
1,DENVER CENTENNIAL  GOLDEN   N ANN CLG .4% CONDNS DB=>MWB 1,  39.74,-105.18,  -7.00,1829.00
2,1, 7,21, 0, 1, 0.00,60.00,SummerDesignDay
8,18301423.97869877
565,0.0
2,1, 7,21, 0, 2, 0.00,60.00,SummerDesignDay
8,18098754.544838005
565,681761.7911406888
2,1, 7,21, 0, 3, 0.00,60.00,SummerDesignDay
8,17936784.552244277
565,1548819.513401123
2,1, 7,21, 0, 4, 0.00,60.00,SummerDesignDay
8,17782665.236288545
565,1548819.513401123
2,1, 7,21, 0, 5, 0.00,60.00,SummerDesignDay
8,17662824.37757588
565,947301.4912112538
2,1, 7,21, 0, 6, 0.00,60.00,SummerDesignDay
8,15490006.412419897
565,0.0
2,1, 7,21, 0, 7, 0.00,60.00,SummerDesignDay
8,16218413.098666352
565,1283127.0826128703
2,1, 7,21, 0, 8, 0.00,60.00,SummerDesignDay
8,17440743.14060849
565,1548819.513401123
2,1, 7,21, 0, 9, 0.00,60.00,SummerDesignDay
8,18835029.17303458
565,1548819.513401123
2,1, 7,21, 0,10, 0.00,60.00,SummerDesignDay
8,20253861.371361067
565,1548819.513401123
2,1, 7,21, 0,11, 0.00,60.00,SummerDesignDay
8,21432492.13024722
565,1548819.513401123
2,1, 7,21, 0,12, 0.00,60.00,SummerDesignDay
8,22177268.33592276
565,1548819.513401123
2,1, 7,21, 0,13, 0.00,60.00,SummerDesignDay
8,22815396.51517953
565,1548819.513401123
2,1, 7,21, 0,14, 0.00,60.00,SummerDesignDay
8,23452321.61140234
565,1548819.513401123
2,1, 7,21, 0,15, 0.00,60.00,SummerDesignDay
8,23577072.896386479
565,1548819.513401123
2,1, 7,21, 0,16, 0.00,60.00,SummerDesignDay
8,22957399.56308051
565,1548819.513401123
2,1, 7,21, 0,17, 0.00,60.00,SummerDesignDay
8,22011791.789167305
565,1548819.513401123
2,1, 7,21, 0,18, 0.00,60.00,SummerDesignDay
8,20935493.566245784
565,1548819.513401123
2,1, 7,21, 0,19, 0.00,60.00,SummerDesignDay
8,19262864.686147799
565,1548819.513401123
2,1, 7,21, 0,20, 0.00,60.00,SummerDesignDay
8,21654558.476936517
565,1548819.513401123
2,1, 7,21, 0,21, 0.00,60.00,SummerDesignDay
8,21020208.87457556
565,1548819.513401123
2,1, 7,21, 0,22, 0.00,60.00,SummerDesignDay
8,20539085.55741064
565,1548819.513401123
2,1, 7,21, 0,23, 0.00,60.00,SummerDesignDay
8,20206199.442727735
565,1548819.513401123
2,1, 7,21, 0,24, 0.00,60.00,SummerDesignDay
8,19908065.423125827
565,1548819.513401123
1,DENVER CENTENNIAL  GOLDEN   N ANN CLG .4% CONDNS WB=>MDB 1,  39.74,-105.18,  -7.00,1829.00
2,1, 7,21, 0, 1, 0.00,60.00,SummerDesignDay
8,16982238.924137817
565,0.0
2,1, 7,21, 0, 2, 0.00,60.00,SummerDesignDay
8,16982238.924137817
565,1004387.6674607589
2,1, 7,21, 0, 3, 0.00,60.00,SummerDesignDay
8,16982238.924137817
565,1924609.9869565517
2,1, 7,21, 0, 4, 0.00,60.00,SummerDesignDay
8,16982238.924137817
565,1966562.7949951152
2,1, 7,21, 0, 5, 0.00,60.00,SummerDesignDay
8,16982238.924137817
565,1403197.588793754
2,1, 7,21, 0, 6, 0.00,60.00,SummerDesignDay
8,14253438.924137805
565,437657.08389560537
2,1, 7,21, 0, 7, 0.00,60.00,SummerDesignDay
8,14842435.40545262
565,1283127.0826128703
2,1, 7,21, 0, 8, 0.00,60.00,SummerDesignDay
8,16155281.511796585
565,1548819.513401123
2,1, 7,21, 0, 9, 0.00,60.00,SummerDesignDay
8,17757340.50678337
565,1548819.513401123
2,1, 7,21, 0,10, 0.00,60.00,SummerDesignDay
8,19237988.72056062
565,1548819.513401123
2,1, 7,21, 0,11, 0.00,60.00,SummerDesignDay
8,20344064.107452435
565,1548819.513401123
2,1, 7,21, 0,12, 0.00,60.00,SummerDesignDay
8,20885310.600356845
565,1548819.513401123
2,1, 7,21, 0,13, 0.00,60.00,SummerDesignDay
8,21349868.82095068
565,1548819.513401123
2,1, 7,21, 0,14, 0.00,60.00,SummerDesignDay
8,21869972.614469898
565,1548819.513401123
2,1, 7,21, 0,15, 0.00,60.00,SummerDesignDay
8,21950277.04337484
565,1548819.513401123
2,1, 7,21, 0,16, 0.00,60.00,SummerDesignDay
8,21370360.648335004
565,1548819.513401123
2,1, 7,21, 0,17, 0.00,60.00,SummerDesignDay
8,20478316.112711718
565,1548819.513401123
2,1, 7,21, 0,18, 0.00,60.00,SummerDesignDay
8,19414948.014290614
565,1548819.513401123
2,1, 7,21, 0,19, 0.00,60.00,SummerDesignDay
8,17790714.190762674
565,1548819.513401123
2,1, 7,21, 0,20, 0.00,60.00,SummerDesignDay
8,20394667.022281007
565,1548819.513401123
2,1, 7,21, 0,21, 0.00,60.00,SummerDesignDay
8,19623840.90552019
565,1548819.513401123
2,1, 7,21, 0,22, 0.00,60.00,SummerDesignDay
8,19099836.461692849
565,1548819.513401123
2,1, 7,21, 0,23, 0.00,60.00,SummerDesignDay
8,18719748.84101837
565,1548819.513401123
2,1, 7,21, 0,24, 0.00,60.00,SummerDesignDay
8,18296773.06215022
565,1548819.513401123
1,DENVER CENTENNIAL  GOLDEN   N ANN HTG 99.6% CONDNS DB 1,  39.74,-105.18,  -7.00,1829.00
2,1,12,21, 0, 1, 0.00,60.00,WinterDesignDay
8,5246238.92413778
565,53907124.86502883
2,1,12,21, 0, 2, 0.00,60.00,WinterDesignDay
8,5246238.92413778
565,54588979.91426665
2,1,12,21, 0, 3, 0.00,60.00,WinterDesignDay
8,5246238.92413778
565,55456126.71542417
2,1,12,21, 0, 4, 0.00,60.00,WinterDesignDay
8,5246238.92413778
565,55456211.80247976
2,1,12,21, 0, 5, 0.00,60.00,WinterDesignDay
8,5246238.92413778
565,54854775.05445935
2,1,12,21, 0, 6, 0.00,60.00,WinterDesignDay
8,5246238.92413778
565,53907551.19545952
2,1,12,21, 0, 7, 0.00,60.00,WinterDesignDay
8,6560773.062150183
565,55190752.43158849
2,1,12,21, 0, 8, 0.00,60.00,WinterDesignDay
8,2517966.2311841857
565,55456515.6931378
2,1,12,21, 0, 9, 0.00,60.00,WinterDesignDay
8,2517966.2311841857
565,55456583.35009029
2,1,12,21, 0,10, 0.00,60.00,WinterDesignDay
8,2517966.2311841857
565,55456647.97550111
2,1,12,21, 0,11, 0.00,60.00,WinterDesignDay
8,2517966.2311841857
565,55456709.70525773
2,1,12,21, 0,12, 0.00,60.00,WinterDesignDay
8,2517966.2311841857
565,55456768.669152859
2,1,12,21, 0,13, 0.00,60.00,WinterDesignDay
8,2517966.2311841857
565,55456824.99115952
2,1,12,21, 0,14, 0.00,60.00,WinterDesignDay
8,2517966.2311841857
565,55456878.78969142
2,1,12,21, 0,15, 0.00,60.00,WinterDesignDay
8,2517966.2311841857
565,55456930.17785261
2,1,12,21, 0,16, 0.00,60.00,WinterDesignDay
8,2517966.2311841857
565,55456979.26367592
2,1,12,21, 0,17, 0.00,60.00,WinterDesignDay
8,2517966.2311841857
565,55457026.15034949
2,1,12,21, 0,18, 0.00,60.00,WinterDesignDay
8,6561300.3691966
565,55457070.9364354
2,1,12,21, 0,19, 0.00,60.00,WinterDesignDay
8,6561300.3691966
565,55457113.71607584
2,1,12,21, 0,20, 0.00,60.00,WinterDesignDay
8,6561300.3691966
565,55457154.57919314
2,1,12,21, 0,21, 0.00,60.00,WinterDesignDay
8,6561300.3691966
565,55457193.6116773
2,1,12,21, 0,22, 0.00,60.00,WinterDesignDay
8,6561300.3691966
565,55457230.895567599
2,1,12,21, 0,23, 0.00,60.00,WinterDesignDay
8,6560773.062150183
565,55457266.509225558
2,1,12,21, 0,24, 0.00,60.00,WinterDesignDay
8,6560773.062150183
565,55457300.52749984
End of Data
 Number of Records Written=         288
