Program Version,EnergyPlus, Version 9.3.0-baff08990c, YMD=2020.11.01 22:46
1,5,Environment Title[],Latitude[deg],Longitude[deg],Time Zone[],Elevation[m]
2,8,Day of Simulation[],Month[],Day of Month[],DST Indicator[1=yes 0=no],Hour[],StartMinute[],EndMinute[],DayType
3,5,Cumulative Day of Simulation[],Month[],Day of Month[],DST Indicator[1=yes 0=no],DayType  ! When Daily Report Variables Requested
4,2,Cumulative Days of Simulation[],Month[]  ! When Monthly Report Variables Requested
5,1,Cumulative Days of Simulation[] ! When Run Period Report Variables Requested
6,1,Calendar Year of Simulation[] ! When Annual Report Variables Requested
7,1,Environment,Site Outdoor Air Drybulb Temperature [C] !TimeStep
8,1,Environment,Site Outdoor Air Wetbulb Temperature [C] !TimeStep
229,1,ZONE OFFICE WHOLEBUILDING - SM OFFICE  - STORY GROUND,Zone Air Temperature [C] !TimeStep
230,1,ZONE OFFICE WHOLEBUILDING - SM OFFICE  - STORY GROUND,Zone Air Relative Humidity [%] !TimeStep
231,1,ZONE OFFICE WHOLEBUILDING - SM OFFICE  - STORY GROUND,Zone Thermostat Cooling Setpoint Temperature [C] !TimeStep
379,1,ZONE OFFICE WHOLEBUILDING - SM OFFICE  - STORY GROUND OFFICE WHOLEBUILDING - SM OFFICE PEOPLE,Zone Thermal Comfort Fanger Model PMV [] !TimeStep
380,1,ZONE OFFICE WHOLEBUILDING - SM OFFICE  - STORY GROUND OFFICE WHOLEBUILDING - SM OFFICE PEOPLE,Zone Thermal Comfort Fanger Model PPD [%] !TimeStep
381,1,ZONE OFFICE WHOLEBUILDING - SM OFFICE  - STORY GROUND,Zone Thermal Comfort ASHRAE 55 Simple Model Summer Clothes Not Comfortable Time [hr] !TimeStep
382,1,ZONE OFFICE WHOLEBUILDING - SM OFFICE  - STORY GROUND,Zone Thermal Comfort ASHRAE 55 Simple Model Winter Clothes Not Comfortable Time [hr] !TimeStep
383,1,ZONE OFFICE WHOLEBUILDING - SM OFFICE  - STORY GROUND,Zone Thermal Comfort ASHRAE 55 Simple Model Summer or Winter Clothes Not Comfortable Time [hr] !TimeStep
486,1,UTSS COIL 0,Cooling Coil Operating Mode Index [] !TimeStep
487,1,UTSS COIL 0,Cooling Coil Total Cooling Rate [W] !TimeStep
513,1,UTSS COIL 0,Cooling Coil Electric Power [W] !TimeStep
552,1,UTSS COIL 0,Cooling Coil Thermal Storage Mechanical Heat Transfer Rate [W] !TimeStep
553,1,UTSS COIL 0,Cooling Coil Thermal Storage Ambient Heat Transfer Rate [W] !TimeStep
554,1,UTSS COIL 0,Cooling Coil Ice Thermal Storage End Fraction [] !TimeStep
568,1,ZONE OFFICE WHOLEBUILDING - SM OFFICE  - STORY GROUND PSZ-AC ELECTRIC BACKUP HTG COIL,Heating Coil Heating Rate [W] !Hourly
569,1,ZONE OFFICE WHOLEBUILDING - SM OFFICE  - STORY GROUND PSZ-AC ELECTRIC BACKUP HTG COIL,Heating Coil Heating Rate [W] !TimeStep
596,1,ZONE OFFICE WHOLEBUILDING - SM OFFICE  - STORY GROUND PSZ-AC GAS HTG COIL,Heating Coil Heating Rate [W] !Hourly
597,1,ZONE OFFICE WHOLEBUILDING - SM OFFICE  - STORY GROUND PSZ-AC GAS HTG COIL,Heating Coil Heating Rate [W] !TimeStep
10,1,Electricity:Facility [J] !TimeStep
22,1,Electricity:Building [J] !TimeStep
386,1,Electricity:HVAC [J] !TimeStep
515,1,Cooling:Electricity [J] !TimeStep
398,1,Fans:Electricity [J] !TimeStep
571,1,Heating:Electricity [J] !TimeStep
623,1,Heating:Gas [J] !TimeStep
46,1,InteriorLights:Electricity [J] !TimeStep
423,1,ExteriorLights:Electricity [J] !TimeStep
83,1,InteriorEquipment:Electricity [J] !TimeStep
713,1,Pumps:Electricity [J] !TimeStep
912,1,WaterSystems:Gas [J] !TimeStep
763,1,WaterSystems:Water [m3] !TimeStep
599,1,Gas:Facility [J] !TimeStep
739,1,Water:Facility [m3] !TimeStep
End of Data Dictionary
1,DENVER CENTENNIAL  GOLDEN   N ANN CLG .4% CONDNS DB=>MWB 1 HVAC Sizing Pass 1,  39.74,-105.18,  -7.00,1829.00
2,1, 7,21, 0, 1, 0.00,60.00,SummerDesignDay
7,19.624000000000004
8,11.191835451718307
379,0.564710752198501
380,11.678894731652634
381,0.0
382,1.0
383,0.0
229,26.00433525942698
230,32.38415875549631
231,23.89
487,0.0
513,1225.4052640106696
552,-4894.820827270939
553,155.284712
554,0.11549117600297916
569,0.0
597,0.0
486,4.0
10,13662192.299974839
22,5867999.999999998
46,3599999.9999999969
83,2268000.000000001
386,5997792.299974841
398,1586333.3495364309
423,1796400.0
515,4411458.95043841
571,0.0
599,0.0
623,0.0
713,0.0
739,0.0
763,0.0
912,0.0
2,1, 7,21, 0, 1, 0.00,60.00,SummerDesignDay
568,0.0
596,0.0
2,1, 7,21, 0, 2, 0.00,60.00,SummerDesignDay
7,19.016
8,10.963953729719359
379,0.5696743045642473
380,11.797904717200283
381,0.0
382,1.0
383,0.0
229,25.93283733615809
230,32.62621406723557
231,23.89
487,0.0
513,1176.1847319394754
552,-4407.658351564109
553,150.47360799999999
554,0.21922860104590526
569,0.0
597,0.0
486,4.0
10,13484998.38451854
22,5867999.999999998
46,3599999.9999999969
83,2268000.000000001
386,5820598.384518542
398,1586333.3495364309
423,1796400.0
515,4234265.034982111
571,0.0
599,0.0
623,0.0
713,0.0
739,0.0
763,0.0
912,0.0
2,1, 7,21, 0, 2, 0.00,60.00,SummerDesignDay
568,0.0
596,0.0
2,1, 7,21, 0, 3, 0.00,60.00,SummerDesignDay
7,18.560000000000004
8,10.791779113984397
379,0.5487071813489713
380,11.302456431875186
381,0.0
382,1.0
383,0.0
229,25.79037042095763
230,32.97189124419851
231,23.89
487,0.0
513,1165.7760425960008
552,-4327.091254280802
553,146.86528
554,0.32109072467702579
569,0.0
597,0.0
486,4.0
10,13447527.102882032
22,5867999.999999998
46,3599999.9999999969
83,2268000.000000001
386,5783127.102882033
398,1586333.3495364309
423,1796400.0
515,4196793.753345602
571,0.0
599,0.0
623,0.0
713,0.0
739,0.0
763,0.0
912,0.0
2,1, 7,21, 0, 3, 0.00,60.00,SummerDesignDay
568,0.0
596,0.0
2,1, 7,21, 0, 4, 0.00,60.00,SummerDesignDay
7,18.104
8,10.618495787729284
379,0.5142462520086375
380,10.529537498414669
381,0.0
382,1.0
383,0.0
229,25.612813585049368
230,33.366852018946598
231,23.89
487,0.0
513,1153.5399255234905
552,-4311.776648923353
553,143.256952
554,0.4226675942862869
569,0.0
597,0.0
486,4.0
10,13403477.081420994
22,5867999.999999998
46,3599999.9999999969
83,2268000.000000001
386,5739077.081420996
398,1586333.3495364309
423,1796400.0
515,4152743.7318845659
571,0.0
599,0.0
623,0.0
713,0.0
739,0.0
763,0.0
912,0.0
2,1, 7,21, 0, 4, 0.00,60.00,SummerDesignDay
568,0.0
596,0.0
2,1, 7,21, 0, 5, 0.00,60.00,SummerDesignDay
7,17.8
8,10.502360815989663
379,0.4747881916433391
380,9.707609973205152
381,0.0
382,1.0
383,0.0
229,25.42819945914383
230,33.75719336847459
231,23.89
487,0.0
513,1144.8877919728773
552,-4289.307887577713
553,140.8514
554,0.5237555713994542
569,0.0
597,0.0
486,4.0
10,13372329.400638788
22,5867999.999999998
46,3599999.9999999969
83,2268000.000000001
386,5707929.400638789
398,1586333.3495364309
423,1796400.0
515,4121596.0511023586
571,0.0
599,0.0
623,0.0
713,0.0
739,0.0
763,0.0
912,0.0
2,1, 7,21, 0, 5, 0.00,60.00,SummerDesignDay
568,0.0
596,0.0
2,1, 7,21, 0, 6, 0.00,60.00,SummerDesignDay
7,18.104
8,10.618495787729284
379,0.5196151589460074
380,10.646574842228106
381,0.0
382,1.0
383,0.0
229,25.82798514541517
230,32.964688311257827
231,23.89
487,0.0
513,1148.950320170556
552,-4232.988368302746
553,143.256952
554,0.5985484101219651
569,0.0
597,0.0
486,4.0
10,11590554.502150432
22,5867999.999999998
46,3599999.9999999969
83,2268000.000000001
386,5722554.502150433
398,1586333.3495364309
423,0.0
515,4136221.152614002
571,0.0
599,0.0
623,0.0
713,0.0
739,0.0
763,0.0
912,0.0
2,1, 7,21, 0, 6, 0.00,60.00,SummerDesignDay
568,0.0
596,0.0
2,1, 7,21, 0, 7, 0.00,60.00,SummerDesignDay
7,19.168
8,11.0211091449253
379,0.6878571929713804
380,14.947243031783743
381,0.0
382,1.0
383,0.0
229,26.852012063547887
230,31.095232829658174
231,23.89
487,0.0
513,1170.6841047354529
552,-4151.458356542873
553,151.676384
554,0.6884435381413123
569,0.0
597,0.0
486,4.0
10,11668796.12658406
22,5867999.999999998
46,3599999.9999999969
83,2268000.000000001
386,5800796.126584061
398,1586333.3495364309
423,0.0
515,4214462.77704763
571,0.0
599,0.0
623,0.0
713,0.0
739,0.0
763,0.0
912,0.0
2,1, 7,21, 0, 7, 0.00,60.00,SummerDesignDay
568,0.0
596,0.0
2,1, 7,21, 0, 8, 0.00,60.00,SummerDesignDay
7,21.752000000000004
8,11.974576060941338
379,0.954689430892549
380,24.251227845315897
381,0.0
382,1.0
383,0.0
229,24.040891185004886
230,37.03822601919576
231,23.889999999999998
487,2783.11701937614
513,717.5433063283895
552,0.0
553,172.123576
554,0.7184310527489624
569,0.0
597,0.0
486,0.9999999999999999
10,10037585.12632707
22,5867999.999999998
46,3599999.9999999969
83,2268000.000000001
386,4169489.2523186325
398,1586333.3495364306
423,0.0
515,2583155.9027822019
571,0.0
599,0.0
623,0.0
713,95.87400843950175
739,0.0005572852680390153
763,0.0005572852680390153
912,0.0
2,1, 7,21, 0, 8, 0.00,60.00,SummerDesignDay
568,0.0
596,0.0
2,1, 7,21, 0, 9, 0.00,60.00,SummerDesignDay
7,24.64
8,13.001358129705418
379,0.569665864470239
380,11.797701443905894
381,0.0
382,1.0
383,0.0
229,23.889034455950424
230,37.3682903926802
231,23.89
487,2967.796998523026
513,779.0943114232321
552,0.0
553,194.97632000000002
554,0.7119323452816871
569,0.0
597,0.0
486,1.0
10,10259168.744668505
22,5867999.999999998
46,3599999.9999999969
83,2268000.000000001
386,4391072.870660067
398,1586333.3495364309
423,0.0
515,2804739.5211236358
571,0.0
599,0.0
623,0.0
713,95.87400843950178
739,0.0011352107311905869
763,0.0011352107311905869
912,0.0
2,1, 7,21, 0, 9, 0.00,60.00,SummerDesignDay
568,0.0
596,0.0
2,1, 7,21, 0,10, 0.00,60.00,SummerDesignDay
7,27.224
8,13.887229382070912
379,0.5929704524413095
380,12.370752592673697
381,0.0
382,1.0
383,0.0
229,23.888851410824214
230,37.19467901785601
231,23.89
487,3764.000868546664
513,1050.589176830268
552,0.0
553,215.42351200000003
554,0.7066829887762247
569,0.0
597,0.0
486,1.0
10,11236550.260133833
22,5867999.999999998
46,3599999.9999999969
83,2268000.000000001
386,5368454.386125395
398,1586333.3495364309
423,0.0
515,3782121.0365889647
571,0.0
599,0.0
623,0.0
713,95.87400843950178
739,0.0013209724872035919
763,0.0013209724872035919
912,0.0
2,1, 7,21, 0,10, 0.00,60.00,SummerDesignDay
568,0.0
596,0.0
2,1, 7,21, 0,11, 0.00,60.00,SummerDesignDay
7,29.504
8,14.644511774082974
379,0.6219198302916315
380,13.115431362057919
381,0.0
382,1.0
383,0.0
229,23.888736679802986
230,37.036936181314739
231,23.89
487,4150.791060268975
513,1221.4199637843893
552,0.0
553,233.46515200000003
554,0.7009940005916389
569,0.0
597,0.0
486,1.0
10,11851541.093168669
22,5867999.999999998
46,3599999.9999999969
83,2268000.000000001
386,5983445.219160232
398,1586333.3495364309
423,0.0
515,4397111.869623801
571,0.0
599,446090.48023204787
623,0.0
713,95.87400843950178
739,0.0013209724872035919
763,0.0013209724872035919
912,446090.48023204787
2,1, 7,21, 0,11, 0.00,60.00,SummerDesignDay
568,0.0
596,0.0
2,1, 7,21, 0,12, 0.00,60.00,SummerDesignDay
7,31.024
8,15.13722993390078
379,0.6289144887787266
380,13.300813698798777
381,0.0
382,1.0
383,0.0
229,23.88868435777167
230,36.9154269632639
231,23.89
487,4272.1193760085329
513,1301.417503403643
552,0.0
553,245.49291200000003
554,0.6950119246209707
569,0.0
597,0.0
486,1.0
10,12139532.235797983
22,5867999.999999998
46,3599999.9999999969
83,2268000.000000001
386,6271436.361789546
398,1586333.3495364309
423,0.0
515,4685103.012253115
571,0.0
599,736633.6710078513
623,0.0
713,95.87400843950178
739,0.001692495999229602
763,0.001692495999229602
912,736633.6710078513
2,1, 7,21, 0,12, 0.00,60.00,SummerDesignDay
568,0.0
596,0.0
2,1, 7,21, 0,13, 0.00,60.00,SummerDesignDay
7,32.24
8,15.524660921842367
379,0.6401479051607162
380,13.60297936529669
381,0.0
382,1.0
383,0.0
229,23.888610016721946
230,36.81907427450227
231,23.89
487,4129.238221562026
513,64.92512926984318
552,4194.16335083187
553,255.11512000000003
554,0.5865936342094977
569,0.0
597,0.0
486,5.0
10,7688159.688916304
22,5867999.999999998
46,3599999.9999999969
83,2268000.000000001
386,1820063.8149078664
398,1586333.3495364309
423,0.0
515,233730.46537143546
571,0.0
599,736633.6710078513
623,0.0
713,95.87400843950178
739,0.0020640195112556125
763,0.0020640195112556125
912,736633.6710078513
2,1, 7,21, 0,13, 0.00,60.00,SummerDesignDay
568,0.0
596,0.0
2,1, 7,21, 0,14, 0.00,60.00,SummerDesignDay
7,33.0
8,15.763840399597484
379,0.6655622234970702
380,14.306786807367644
381,0.0
382,1.0
383,0.0
229,23.88851339021416
230,36.7404997112602
231,23.89
487,4386.697852035634
513,68.97323666722694
552,4455.671088702861
553,261.129
554,0.47165648087500758
569,0.0
597,0.0
486,5.0
10,7702732.875546886
22,5867999.999999998
46,3599999.9999999969
83,2268000.000000001
386,1834637.0015384479
398,1586333.3495364309
423,0.0
515,248303.65200201699
571,0.0
599,736633.6710078513
623,0.0
713,95.87400843950178
739,0.0018782577552426074
763,0.0018782577552426074
912,736633.6710078513
2,1, 7,21, 0,14, 0.00,60.00,SummerDesignDay
568,0.0
596,0.0
2,1, 7,21, 0,15, 0.00,60.00,SummerDesignDay
7,33.0
8,15.763840399597484
379,0.6728432009590827
380,14.513578343588904
381,0.0
382,1.0
383,0.0
229,23.888459438294015
230,36.674689921090259
231,23.89
487,4483.870272150274
513,70.50110490802318
552,4554.371377058297
553,261.129
554,0.3543142372327815
569,0.0
597,0.0
486,5.0
10,7708233.201213752
22,5867999.999999998
46,3599999.9999999969
83,2268000.000000001
386,1840137.3272053144
398,1586333.3495364309
423,0.0
515,253803.97766888346
571,0.0
599,736633.6710078513
623,0.0
713,95.87400843950178
739,0.0011352107311905869
763,0.0011352107311905869
912,736633.6710078513
2,1, 7,21, 0,15, 0.00,60.00,SummerDesignDay
568,0.0
596,0.0
2,1, 7,21, 0,16, 0.00,60.00,SummerDesignDay
7,32.088
8,15.476549026642349
379,0.6511961833716933
380,13.905503291487009
381,0.0
382,1.0
383,0.0
229,23.888482095092404
230,36.61732457533705
231,23.89
487,4301.837910605705
513,67.63896085858026
552,4369.476871464285
553,253.91234400000003
554,0.2416532837919958
569,0.0
597,0.0
486,5.0
10,7697929.482635758
22,5867999.999999998
46,3599999.9999999969
83,2268000.000000001
386,1829833.6086273199
398,1586333.3495364309
423,0.0
515,243500.25909088896
571,0.0
599,263048.58573963007
623,0.0
713,95.87400843950178
739,0.0011352107311905869
763,0.0011352107311905869
912,263048.58573963007
2,1, 7,21, 0,16, 0.00,60.00,SummerDesignDay
568,0.0
596,0.0
2,1, 7,21, 0,17, 0.00,60.00,SummerDesignDay
7,30.872
8,15.088388290217204
379,0.6120443493750912
380,12.85731213130181
381,0.0
382,1.0
383,0.0
229,23.88856131306116
230,36.56612934471944
231,23.89
487,3956.1261491979205
513,62.203241339589947
552,4018.3293905375105
553,244.29013600000003
554,0.137783426067547
569,0.0
597,0.0
486,5.0
10,7678360.892367393
22,5867999.999999998
46,3599999.9999999969
83,2268000.000000001
386,1810265.0183589548
398,1586333.3495364309
423,0.0
515,223931.6688225238
571,0.0
599,0.0
623,0.0
713,95.87400843950178
739,0.0015067342432165969
763,0.0015067342432165969
912,0.0
2,1, 7,21, 0,17, 0.00,60.00,SummerDesignDay
568,0.0
596,0.0
2,1, 7,21, 0,18, 0.00,60.00,SummerDesignDay
7,29.352
8,14.59470953108322
379,0.5615662575378482
380,11.604052800117927
381,0.0
382,1.0
383,0.0
229,23.888678086820023
230,36.51942469452421
231,23.89
487,3511.014497571084
513,55.20463046495415
552,3566.2191280360386
553,232.26237600000003
554,0.04522350348077525
569,0.0
597,0.0
486,5.0
10,7653165.893218704
22,5867999.999999998
46,3599999.9999999969
83,2268000.000000001
386,1785070.0192102658
398,1586333.3495364309
423,0.0
515,198736.66967383494
571,0.0
599,0.0
623,0.0
713,95.87400843950178
739,0.0007636872191645764
763,0.0007636872191645764
912,0.0
2,1, 7,21, 0,18, 0.00,60.00,SummerDesignDay
568,0.0
596,0.0
2,1, 7,21, 0,19, 0.00,60.00,SummerDesignDay
7,27.072
8,13.835942872881642
379,0.46596474921235916
380,9.533006539797598
381,0.0
382,1.0
383,0.0
229,23.888891399585046
230,36.474615515935777
231,23.89
487,2958.604636208406
513,823.055397743145
552,0.0
553,214.220736
554,0.040003455753920998
569,0.0
597,0.0
486,1.0
10,10417428.655420192
22,5867999.999999998
46,3599999.9999999969
83,2268000.000000001
386,4549332.781411753
398,1586333.3495364309
423,0.0
515,2962999.431875322
571,0.0
599,0.0
623,0.0
713,95.87400843950178
739,0.0007636872191645764
763,0.0007636872191645764
912,0.0
2,1, 7,21, 0,19, 0.00,60.00,SummerDesignDay
568,0.0
596,0.0
2,1, 7,21, 0,20, 0.00,60.00,SummerDesignDay
7,25.4
8,13.2650418780975
379,0.3264201609184617
380,7.215559709836015
381,0.0
382,0.0
383,0.0
229,23.889165205733297
230,36.432502552744
231,23.89
487,1956.5765635687392
513,523.0963074519629
552,0.0
553,200.9902
554,0.0351058045917572
569,0.0
597,0.0
486,1.0
10,12063491.933461719
22,5867999.999999998
46,3599999.9999999969
83,2268000.000000001
386,3469480.056363497
398,1586333.3495364309
423,2725916.0030897834
515,1883146.7068270662
571,0.0
599,732239.2449095218
623,0.0
713,95.87400843950178
739,0.00037152351202601015
763,0.00037152351202601015
912,732239.2449095218
2,1, 7,21, 0,20, 0.00,60.00,SummerDesignDay
568,0.0
596,0.0
2,1, 7,21, 0,21, 0.00,60.00,SummerDesignDay
7,24.032
8,12.788484356442869
379,0.27768913856759028
380,6.601529035129261
381,0.0
382,0.0
383,0.0
229,23.889272601963947
230,36.394086401796389
231,23.89
487,1612.6172162876365
513,417.1315793267994
552,0.0
553,190.16521600000002
554,0.03047193243706743
569,0.0
597,0.0
486,1.0
10,11682018.91221113
22,5867999.999999998
46,3599999.9999999969
83,2268000.000000001
386,3088007.0351129088
398,1586333.3495364309
423,2725916.0030897834
515,1501673.6855764779
571,0.0
599,736633.6710078513
623,0.0
713,95.87400843950178
739,0.0005572852680390153
763,0.0005572852680390153
912,736633.6710078513
2,1, 7,21, 0,21, 0.00,60.00,SummerDesignDay
568,0.0
596,0.0
2,1, 7,21, 0,22, 0.00,60.00,SummerDesignDay
7,22.664
8,12.303137545607484
379,0.2524469347694866
380,6.32287181979396
381,1.0
382,0.0
383,0.0
229,23.889377308753205
230,36.35856674957718
231,23.89
487,1354.5617191270317
513,349.1745678857232
552,0.0
553,179.34023200000002
554,0.026101839289851677
569,0.0
597,0.0
486,1.0
10,11437373.671023256
22,5867999.999999998
46,3599999.9999999969
83,2268000.000000001
386,2843361.7939250345
398,1586333.3495364309
423,2725916.0030897834
515,1257028.4443886036
571,0.0
599,736633.6710078513
623,0.0
713,95.87400843950178
739,0.00018576175601300507
763,0.00018576175601300507
912,736633.6710078513
2,1, 7,21, 0,22, 0.00,60.00,SummerDesignDay
568,0.0
596,0.0
2,1, 7,21, 0,23, 0.00,60.00,SummerDesignDay
7,21.6
8,11.91941362764802
379,0.23416191329310227
380,6.137754576788737
381,1.0
382,0.0
383,0.0
229,25.716441332105423
230,32.58320075714122
231,23.89
487,0.0
513,1246.6501909963923
552,-4446.2794837073729
553,170.92080000000005
554,0.08943295299838669
569,0.0
597,0.0
486,4.0
10,14668190.040213224
22,5867999.999999998
46,3599999.9999999969
83,2268000.000000001
386,6074274.037123443
398,1586333.349536431
423,2725916.0030897834
515,4487940.687587012
571,0.0
599,515340.6088239964
623,0.0
713,0.0
739,0.0
763,0.0
912,515340.6088239964
2,1, 7,21, 0,23, 0.00,60.00,SummerDesignDay
568,0.0
596,0.0
2,1, 7,21, 0,24, 0.00,60.00,SummerDesignDay
7,20.536
8,11.53009523495306
379,0.5406509521487772
380,11.11715783832642
381,0.0
382,1.0
383,0.0
229,25.92876576281467
230,32.36511500547758
231,23.89
487,0.0
513,1211.2242103372558
552,-4277.1468219811799
553,162.501368
554,0.20566474950891545
569,0.0
597,0.0
486,4.0
10,14540656.509840332
22,5867999.999999998
46,3599999.9999999969
83,2268000.000000001
386,5946740.506750551
398,1586333.3495364309
423,2725916.0030897834
515,4360407.15721412
571,0.0
599,0.0
623,0.0
713,0.0
739,0.0
763,0.0
912,0.0
2,1, 7,21, 0,24, 0.00,60.00,SummerDesignDay
568,0.0
596,0.0
1,DENVER CENTENNIAL  GOLDEN   N ANN CLG .4% CONDNS WB=>MDB 1 HVAC Sizing Pass 1,  39.74,-105.18,  -7.00,1829.00
2,1, 7,21, 0, 1, 0.00,60.00,SummerDesignDay
7,13.924000000000002
8,13.923995971679688
379,0.27091764132082765
380,6.524142357710431
381,1.0
382,1.0
383,1.0
229,23.814123583888699
230,56.70797747413358
231,23.89
487,0.0
513,1111.9470095947846
552,-5157.672628250607
553,110.18061200000001
554,0.12299532583878342
569,0.0
597,0.0
486,4.0
10,13253742.584077653
22,5867999.999999998
46,3599999.9999999969
83,2268000.000000001
386,5589342.584077655
398,1586333.3495364309
423,1796400.0
515,4003009.2345412245
571,0.0
599,0.0
623,0.0
713,0.0
739,0.0
763,0.0
912,0.0
2,1, 7,21, 0, 1, 0.00,60.00,SummerDesignDay
568,0.0
596,0.0
2,1, 7,21, 0, 2, 0.00,60.00,SummerDesignDay
7,13.316
8,13.315994262695313
379,0.22726963370873735
380,6.071619825570593
381,1.0
382,1.0
383,1.0
229,23.644024873559716
230,57.51227928767461
231,23.89
487,0.0
513,1074.0642200777075
552,-4638.058760768341
553,105.36950800000001
554,0.233446137801497
569,0.0
597,70.35292492168259
486,4.0
10,13117364.541816175
22,5867999.999999998
46,3599999.9999999969
83,2268000.000000001
386,5452964.541816178
398,1586333.3495364309
423,1796400.0
515,3866631.1922797469
571,0.0
599,316588.1621475716
623,316588.1621475716
713,0.0
739,0.0
763,0.0
912,0.0
2,1, 7,21, 0, 2, 0.00,60.00,SummerDesignDay
568,0.0
596,70.35292492168259
2,1, 7,21, 0, 3, 0.00,60.00,SummerDesignDay
7,12.860000000000002
8,12.859992980957032
379,0.18718675078319287
380,5.726441357463585
381,1.0
382,1.0
383,1.0
229,23.425102118647513
230,58.17058837585084
231,23.89
487,0.0
513,1060.9065731920919
552,-4574.844810911555
553,101.76118000000001
554,0.34244450311179477
569,0.0
597,56.09924507179971
486,4.0
10,13069997.013027959
22,5867999.999999998
46,3599999.9999999969
83,2268000.000000001
386,5405597.013027961
398,1586333.3495364309
423,1796400.0
515,3819263.663491531
571,0.0
599,252446.60282309867
623,252446.60282309867
713,0.0
739,0.0
763,0.0
912,0.0
2,1, 7,21, 0, 3, 0.00,60.00,SummerDesignDay
568,0.0
596,56.09924507179971
2,1, 7,21, 0, 4, 0.00,60.00,SummerDesignDay
7,12.404000000000002
8,12.403996906740363
379,0.1368082716745802
380,5.387763295995697
381,1.0
382,1.0
383,1.0
229,23.202233700351699
230,58.59658319658817
231,23.89
487,0.0
513,1051.506145681643
552,-4550.600592058251
553,98.15285200000001
554,0.4509400210453549
569,0.0
597,72.27236794159025
486,4.0
10,13036155.473990344
22,5867999.999999998
46,3599999.9999999969
83,2268000.000000001
386,5371755.473990345
398,1586333.3495364309
423,1796400.0
515,3785422.1244539145
571,0.0
599,325225.6557371561
623,325225.6557371561
713,0.0
739,0.0
763,0.0
912,0.0
2,1, 7,21, 0, 4, 0.00,60.00,SummerDesignDay
568,0.0
596,72.27236794159025
2,1, 7,21, 0, 5, 0.00,60.00,SummerDesignDay
7,12.100000000000002
8,12.09999510978781
379,0.08462875734800053
380,5.148305041810076
381,1.0
382,1.0
383,1.0
229,22.983255504877435
230,58.87230378606443
231,23.89
487,0.0
513,1044.4702139320178
552,-4521.381599971029
553,95.74730000000001
554,0.5587821594807864
569,0.0
597,73.61226343681212
486,4.0
10,13010826.119691693
22,5867999.999999998
46,3599999.9999999969
83,2268000.000000001
386,5346426.119691694
398,1586333.3495364309
423,1796400.0
515,3760092.7701552638
571,0.0
599,331255.1854656545
623,331255.1854656545
713,0.0
739,0.0
763,0.0
912,0.0
2,1, 7,21, 0, 5, 0.00,60.00,SummerDesignDay
568,0.0
596,73.61226343681212
2,1, 7,21, 0, 6, 0.00,60.00,SummerDesignDay
7,12.404000000000002
8,12.403996906740363
379,0.12324406391494984
380,5.314634658513967
381,1.0
382,1.0
383,1.0
229,23.266797078461975
230,57.56269259027069
231,23.89
487,0.0
513,1046.0780904133845
552,-4469.626345452556
553,98.15285200000001
554,0.6653045284100979
569,0.0
597,72.33535971374812
486,4.0
10,11220214.475024613
22,5867999.999999998
46,3599999.9999999969
83,2268000.000000001
386,5352214.4750246149
398,1586333.3495364309
423,0.0
515,3765881.125488184
571,0.0
599,325509.11871186658
623,325509.11871186658
713,0.0
739,0.0
763,0.0
912,0.0
2,1, 7,21, 0, 6, 0.00,60.00,SummerDesignDay
568,0.0
596,72.33535971374812
2,1, 7,21, 0, 7, 0.00,60.00,SummerDesignDay
7,13.468000000000002
8,13.467993845842147
379,0.2677899364337639
380,6.489050393097386
381,1.0
382,1.0
383,1.0
229,24.204676966136899
230,54.90329126546877
231,23.89
487,0.0
513,1059.1923090196363
552,-4378.488645218672
553,106.57228400000001
554,0.7347645139442759
569,0.0
597,0.0
486,4.0
10,11267425.66200712
22,5867999.999999998
46,3599999.9999999969
83,2268000.000000001
386,5399425.662007121
398,1586333.3495364309
423,0.0
515,3813092.3124706905
571,0.0
599,0.0
623,0.0
713,0.0
739,0.0
763,0.0
912,0.0
2,1, 7,21, 0, 7, 0.00,60.00,SummerDesignDay
568,0.0
596,0.0
2,1, 7,21, 0, 8, 0.00,60.00,SummerDesignDay
7,16.052
8,15.031058258506438
379,0.5279118923622631
380,10.829889433332014
381,1.0
382,1.0
383,1.0
229,24.18108986461953
230,55.03845393040684
231,23.89
487,1575.7660339004372
513,405.08454308775466
552,0.0
553,127.019476
554,0.7663057665149423
569,0.0
597,0.0
486,1.0
10,8912733.578660787
22,5867999.999999998
46,3599999.9999999969
83,2268000.000000001
386,3044637.7046523478
398,1586333.3495364309
423,0.0
515,1458304.3551159169
571,0.0
599,0.0
623,0.0
713,95.87400843950178
739,0.0005572852680390153
763,0.0005572852680390153
912,0.0
2,1, 7,21, 0, 8, 0.00,60.00,SummerDesignDay
568,0.0
596,0.0
2,1, 7,21, 0, 9, 0.00,60.00,SummerDesignDay
7,18.94
8,15.948581578042399
379,0.6212338346927744
380,13.097364448771373
381,1.0
382,1.0
383,1.0
229,24.018870078606697
230,54.885761705148798
231,23.89
487,2295.781818057761
513,590.2028882355659
552,0.0
553,149.87222000000004
554,0.762653738443628
569,0.0
597,0.0
486,1.0
10,9579159.621192906
22,5867999.999999998
46,3599999.9999999969
83,2268000.000000001
386,3711063.7471844677
398,1586333.3495364309
423,0.0
515,2124730.397648037
571,0.0
599,0.0
623,0.0
713,95.87400843950178
739,0.0011352107311905869
763,0.0011352107311905869
912,0.0
2,1, 7,21, 0, 9, 0.00,60.00,SummerDesignDay
568,0.0
596,0.0
2,1, 7,21, 0,10, 0.00,60.00,SummerDesignDay
7,21.524
8,16.742342038574895
379,0.6576693063601962
380,14.085208728460842
381,1.0
382,1.0
383,1.0
229,23.9387709614619
230,50.82972822252867
231,23.89
487,4383.824305580496
513,1127.1382702503464
552,0.0
553,170.319412
554,0.758503461135974
569,0.0
597,0.0
486,1.0
10,11512126.996446116
22,5867999.999999998
46,3599999.9999999969
83,2268000.000000001
386,5644031.122437677
398,1586333.3495364309
423,0.0
515,4057697.772901247
571,0.0
599,0.0
623,0.0
713,95.87400843950178
739,0.0013209724872035919
763,0.0013209724872035919
912,0.0
2,1, 7,21, 0,10, 0.00,60.00,SummerDesignDay
568,0.0
596,0.0
2,1, 7,21, 0,11, 0.00,60.00,SummerDesignDay
7,23.804000000000003
8,17.422491295150473
379,0.6497959826483921
380,13.866870139458925
381,0.0
382,1.0
383,0.0
229,23.90568379272248
230,45.64975951242815
231,23.89
487,4972.872561854855
513,1280.2140934902917
552,0.0
553,188.36105200000004
554,0.7539135521491965
569,0.0
597,0.0
486,1.0
10,12063199.96010992
22,5867999.999999998
46,3599999.9999999969
83,2268000.000000001
386,6195104.086101481
398,1586333.3495364309
423,0.0
515,4608770.73656505
571,0.0
599,444932.5002197342
623,0.0
713,95.87400843950178
739,0.0013209724872035919
763,0.0013209724872035919
912,444932.5002197342
2,1, 7,21, 0,11, 0.00,60.00,SummerDesignDay
568,0.0
596,0.0
2,1, 7,21, 0,12, 0.00,60.00,SummerDesignDay
7,25.324
8,17.865836726668534
379,0.6172775606503093
380,12.99356743805265
381,0.0
382,1.0
383,0.0
229,23.97133422251563
230,40.70405348299456
231,23.89
487,4781.7408072828679
513,1272.7883933475715
552,0.0
553,200.38881200000004
554,0.7490305553763369
569,0.0
597,0.0
486,1.0
10,12036467.439596126
22,5867999.999999998
46,3599999.9999999969
83,2268000.000000001
386,6168371.565587688
398,1586333.3495364309
423,0.0
515,4582038.216051257
571,0.0
599,736633.6710078513
623,0.0
713,95.87400843950178
739,0.001692495999229602
763,0.001692495999229602
912,736633.6710078513
2,1, 7,21, 0,12, 0.00,60.00,SummerDesignDay
568,0.0
596,0.0
2,1, 7,21, 0,13, 0.00,60.00,SummerDesignDay
7,26.54
8,18.214886456924984
379,0.6089182273414879
380,12.776485437875508
381,0.0
382,1.0
383,0.0
229,23.914789999785009
230,42.699876313653529
231,23.89
487,3370.162135158016
513,52.98997067858515
552,3423.152105836601
553,210.01102
554,0.6604990468471436
569,0.0
597,0.0
486,5.0
10,7645193.117987775
22,5867999.999999998
46,3599999.9999999969
83,2268000.000000001
386,1777097.2439793375
398,1586333.3495364309
423,0.0
515,190763.89444290655
571,0.0
599,736633.6710078513
623,0.0
713,95.87400843950178
739,0.0020640195112556125
763,0.0020640195112556125
912,736633.6710078513
2,1, 7,21, 0,13, 0.00,60.00,SummerDesignDay
568,0.0
596,0.0
2,1, 7,21, 0,14, 0.00,60.00,SummerDesignDay
7,27.3
8,18.43056122933001
379,0.6391521800456607
380,13.575974443778108
381,0.0
382,1.0
383,0.0
229,23.897538657118838
230,44.945767653333728
231,23.89
487,3746.1018963195795
513,58.900973212572008
552,3805.002869532151
553,216.0249
554,0.5625162032630184
569,0.0
597,0.0
486,5.0
10,7666472.727110128
22,5867999.999999998
46,3599999.9999999969
83,2268000.000000001
386,1798376.85310169
398,1586333.3495364309
423,0.0
515,212043.50356525923
571,0.0
599,736633.6710078513
623,0.0
713,95.87400843950178
739,0.0018782577552426074
763,0.0018782577552426074
912,736633.6710078513
2,1, 7,21, 0,14, 0.00,60.00,SummerDesignDay
568,0.0
596,0.0
2,1, 7,21, 0,15, 0.00,60.00,SummerDesignDay
7,27.3
8,18.43056122933001
379,0.6592856303882021