Program Version,EnergyPlus, Version 9.1.0-08d2e308bb, YMD=2019.12.26 07:35
1,5,Environment Title[],Latitude[deg],Longitude[deg],Time Zone[],Elevation[m]
2,8,Day of Simulation[],Month[],Day of Month[],DST Indicator[1=yes 0=no],Hour[],StartMinute[],EndMinute[],DayType
3,5,Cumulative Day of Simulation[],Month[],Day of Month[],DST Indicator[1=yes 0=no],DayType  ! When Daily Report Variables Requested
4,2,Cumulative Days of Simulation[],Month[]  ! When Monthly Report Variables Requested
5,1,Cumulative Days of Simulation[] ! When Run Period Report Variables Requested
6,1,Calendar Year of Simulation[] ! When Annual Report Variables Requested
7,9,Environment,Site Outdoor Air Drybulb Temperature [C] !Monthly [Value,Min,Day,Hour,Minute,Max,Day,Hour,Minute]
8,1,Environment,Site Outdoor Air Wetbulb Temperature [C] !TimeStep
692,1,BUILDING STORY 1 THERMALZONE,Zone Air Temperature [C] !Hourly
693,7,BUILDING STORY 1 THERMALZONE,Zone Air Relative Humidity [%] !Daily [Value,Min,Hour,Minute,Max,Hour,Minute]
732,1,BUILDING STORY 2 THERMALZONE,Zone Air Temperature [C] !Hourly
733,7,BUILDING STORY 2 THERMALZONE,Zone Air Relative Humidity [%] !Daily [Value,Min,Hour,Minute,Max,Hour,Minute]
772,1,BUILDING STORY 3 THERMALZONE,Zone Air Temperature [C] !Hourly
773,7,BUILDING STORY 3 THERMALZONE,Zone Air Relative Humidity [%] !Daily [Value,Min,Hour,Minute,Max,Hour,Minute]
812,1,BUILDING STORY 4 THERMALZONE,Zone Air Temperature [C] !Hourly
813,7,BUILDING STORY 4 THERMALZONE,Zone Air Relative Humidity [%] !Daily [Value,Min,Hour,Minute,Max,Hour,Minute]
11,1,Electricity:Facility [J] !TimeStep
252,1,Gas:Facility [J] !TimeStep
End of Data Dictionary
1,BUFFALO NIAGARA INTL AP ANN CLG .4% CONDNS DB=>MWB,  42.93, -78.73,  -5.00, 215.00
2,1, 7,21, 0, 1, 0.00,60.00,SummerDesignDay
8,19.36840579326866
11,18599207728.86634
252,11483093431.488966
2,1, 7,21, 0, 1, 0.00,60.00,SummerDesignDay
692,24.02223452902917
732,26.25504648449681
772,26.244178001375344
812,25.97544275548178
2,1, 7,21, 0, 2, 0.00,60.00,SummerDesignDay
8,19.25226217922265
11,17946181918.242116
252,6642334253.593693
2,1, 7,21, 0, 2, 0.00,60.00,SummerDesignDay
692,24.014138114002728
732,26.646953008312559
772,26.635605945936804
812,26.503346501051476
2,1, 7,21, 0, 3, 0.00,60.00,SummerDesignDay
8,19.164819553782637
11,17968096259.065504
252,6457276570.74201
2,1, 7,21, 0, 3, 0.00,60.00,SummerDesignDay
692,24.012659674076266
732,26.697345427422048
772,26.695804779644737
812,26.559685856859585
2,1, 7,21, 0, 4, 0.00,60.00,SummerDesignDay
8,19.0770792448193
11,17950366231.896066
252,6457276570.74201
2,1, 7,21, 0, 4, 0.00,60.00,SummerDesignDay
692,24.009827057468969
732,26.69904571833403
772,26.698701931431125
812,26.53660417109634
2,1, 7,21, 0, 5, 0.00,60.00,SummerDesignDay
8,19.018427637799467
11,17942290861.82065
252,6457276570.74201
2,1, 7,21, 0, 5, 0.00,60.00,SummerDesignDay
692,24.00671044445827
732,26.699354549490996
772,26.699215012661566
812,26.54141850616077
2,1, 7,21, 0, 6, 0.00,60.00,SummerDesignDay
8,19.0770792448193
11,17174539081.093777
252,6457276570.74201
2,1, 7,21, 0, 6, 0.00,60.00,SummerDesignDay
692,24.070337856955726
732,25.76722882828401
772,25.76684653230744
812,26.61761049856202
2,1, 7,21, 0, 7, 0.00,60.00,SummerDesignDay
8,19.281346189070228
11,17874182816.404035
252,11408673970.439888
2,1, 7,21, 0, 7, 0.00,60.00,SummerDesignDay
692,24.00666395480218
732,25.110492762150196
772,25.10993228335286
812,26.20199492287074
2,1, 7,21, 0, 8, 0.00,60.00,SummerDesignDay
8,19.770887505670989
11,19809363890.277338
252,12827009976.945118
2,1, 7,21, 0, 8, 0.00,60.00,SummerDesignDay
692,23.98643889958052
732,24.115329761847364
772,24.1148697036775
812,26.032321938531959
2,1, 7,21, 0, 9, 0.00,60.00,SummerDesignDay
8,20.30732185289352
11,19915681802.589239
252,12792979605.772797
2,1, 7,21, 0, 9, 0.00,60.00,SummerDesignDay
692,23.97699568671554
732,24.002036777975545
772,24.00193063460065
812,25.983639674636036
2,1, 7,21, 0,10, 0.00,60.00,SummerDesignDay
8,20.778037156782458
11,20043068333.04744
252,12424288979.677351
2,1, 7,21, 0,10, 0.00,60.00,SummerDesignDay
692,23.973993879365108
732,23.999447355782317
772,23.999363190277433
812,25.976122390610663
2,1, 7,21, 0,11, 0.00,60.00,SummerDesignDay
8,21.186337137460165
11,20143475122.857725
252,12377344449.578003
2,1, 7,21, 0,11, 0.00,60.00,SummerDesignDay
692,23.972583733767086
732,23.998497045203334
772,23.998423159180257
812,25.972082455302976
2,1, 7,21, 0,12, 0.00,60.00,SummerDesignDay
8,21.45495938709981
11,20362178734.301885
252,12424919122.314538
2,1, 7,21, 0,12, 0.00,60.00,SummerDesignDay
692,23.971914624646506
732,23.998189676691948
772,23.99811973406602
812,25.96998007266979
2,1, 7,21, 0,13, 0.00,60.00,SummerDesignDay
8,21.667839996742449
11,20409017982.03086
252,12287140044.428158
2,1, 7,21, 0,13, 0.00,60.00,SummerDesignDay
692,23.971449200333188
732,23.998042258969709
772,23.997973828659114
812,25.968894824393407
2,1, 7,21, 0,14, 0.00,60.00,SummerDesignDay
8,21.799990419629109
11,20447984821.99706
252,12109349168.140652
2,1, 7,21, 0,14, 0.00,60.00,SummerDesignDay
692,23.97104591196697
732,23.997895537022044
772,23.997828572078988
812,25.968339374871893
2,1, 7,21, 0,15, 0.00,60.00,SummerDesignDay
8,21.799990419629109
11,20349490014.79745
252,11955094664.024819
2,1, 7,21, 0,15, 0.00,60.00,SummerDesignDay
692,23.970851768430327
732,23.99776635254232
772,23.997701200376665
812,25.968147203708509
2,1, 7,21, 0,16, 0.00,60.00,SummerDesignDay
8,21.641326796728476
11,20243582689.73648
252,11954880826.34323
2,1, 7,21, 0,16, 0.00,60.00,SummerDesignDay
692,23.970863923629996
732,23.99771267272484
772,23.997650629020286
812,25.968213466003779
2,1, 7,21, 0,17, 0.00,60.00,SummerDesignDay
8,21.42822317147698
11,20092663886.00742
252,11954663425.161755
2,1, 7,21, 0,17, 0.00,60.00,SummerDesignDay
692,23.970954844256906
732,23.997714753405317
772,23.99765671776023
812,25.96837713093353
2,1, 7,21, 0,18, 0.00,60.00,SummerDesignDay
8,21.15931786227956
11,20015005139.73365
252,12377324664.271855
2,1, 7,21, 0,18, 0.00,60.00,SummerDesignDay
692,23.97109214358684
732,23.997754243489774
772,23.997698828243299
812,25.968566985841954
2,1, 7,21, 0,19, 0.00,60.00,SummerDesignDay
8,20.750583661392644
11,19898949471.53584
252,12793779311.189438
2,1, 7,21, 0,19, 0.00,60.00,SummerDesignDay
692,23.97129652821327
732,23.99785158894904
772,23.9977976273946
812,25.96881853351252
2,1, 7,21, 0,20, 0.00,60.00,SummerDesignDay
8,20.446661088459409
11,19585822795.104978
252,12827633190.161774
2,1, 7,21, 0,20, 0.00,60.00,SummerDesignDay
692,23.971478684562397
732,23.99800328751
772,23.99794139975014
812,25.969011507423639
2,1, 7,21, 0,21, 0.00,60.00,SummerDesignDay
8,20.19530361990708
11,20153057998.873754
252,12469205942.99892
2,1, 7,21, 0,21, 0.00,60.00,SummerDesignDay
692,23.971268887865685
732,23.99805279215887
772,23.99798195452569
812,25.96891294794459
2,1, 7,21, 0,22, 0.00,60.00,SummerDesignDay
8,19.941485234887624
11,20061894436.3531
252,12792852836.528738
2,1, 7,21, 0,22, 0.00,60.00,SummerDesignDay
692,23.970930919048933
732,23.997962238344735
772,23.997893195115937
812,25.968710985065788
2,1, 7,21, 0,23, 0.00,60.00,SummerDesignDay
8,19.7423381019073
11,19332790138.63276
252,12424564355.445488
2,1, 7,21, 0,23, 0.00,60.00,SummerDesignDay
692,23.98516989302312
732,25.444914122891765
772,25.440327886978058
812,25.981111994979814
2,1, 7,21, 0,24, 0.00,60.00,SummerDesignDay
8,19.54165603023991
11,18843190445.42632
252,11890422401.055802
2,1, 7,21, 0,24, 0.00,60.00,SummerDesignDay
692,23.982269498113348
732,25.939042543889536
772,25.931189495889059
812,25.978507999460839
3,1, 7,21, 0,SummerDesignDay
693,61.06326921276701,60.41607435322347,17,60,61.767634336827928, 5,60
733,46.59716128000261,41.587083697045667, 5,60,49.78795204548659,22,60
773,46.715777045604578,41.74907319114006, 5,60,49.891111603686727,22,60
813,51.108953831322597,50.06940310379652,15,60,52.13822123131897, 1,60
4,1, 7
7,25.312875000000003,21.0,21, 5,60,30.3,21,14,60
1,BUFFALO NIAGARA INTL AP ANN CLG .4% CONDNS WB=>MDB,  42.93, -78.73,  -5.00, 215.00
2,1, 7,21, 0, 1, 0.00,60.00,SummerDesignDay
8,19.615996954992807
11,18627806195.326715
252,11483093431.488966
2,1, 7,21, 0, 1, 0.00,60.00,SummerDesignDay
692,24.001770085699275
732,26.13781929084699
772,26.118408072203555
812,25.97381337248519
2,1, 7,21, 0, 2, 0.00,60.00,SummerDesignDay
8,19.243988037109376
11,17951815053.64813
252,6642334253.593693
2,1, 7,21, 0, 2, 0.00,60.00,SummerDesignDay
692,23.995582296657035
732,26.506651515011776
772,26.481788964016677
812,26.30745404702662
2,1, 7,21, 0, 3, 0.00,60.00,SummerDesignDay
8,18.96499632356402
11,17871948241.105867
252,6457276570.74201
2,1, 7,21, 0, 3, 0.00,60.00,SummerDesignDay
692,23.9930152664349
732,26.674213570516259
772,26.67028784178724
812,26.33253527730296
2,1, 7,21, 0, 4, 0.00,60.00,SummerDesignDay
8,18.685989379882814
11,17791040763.928773
252,6457276570.74201
2,1, 7,21, 0, 4, 0.00,60.00,SummerDesignDay
692,23.989793399437145
732,26.694996368346588
772,26.69427002686248
812,26.306355442830595
2,1, 7,21, 0, 5, 0.00,60.00,SummerDesignDay
8,18.49999810986028
11,17734068468.15524
252,6457276570.74201
2,1, 7,21, 0, 5, 0.00,60.00,SummerDesignDay
692,23.98669090947912
732,26.698568466415975
772,26.69835792030194
812,26.30060191816632
2,1, 7,21, 0, 6, 0.00,60.00,SummerDesignDay
8,18.685989379882814
11,17004434311.015635
252,6457276570.74201
2,1, 7,21, 0, 6, 0.00,60.00,SummerDesignDay
692,24.049540612581195
732,25.765730219455518
772,25.76522582321855
812,26.369373309878037
2,1, 7,21, 0, 7, 0.00,60.00,SummerDesignDay
8,19.336990356445314
11,17787587617.295648
252,11408673970.439888
2,1, 7,21, 0, 7, 0.00,60.00,SummerDesignDay
692,24.00004033520389
732,25.108653229756539
772,25.107945089960489
812,26.111554829074949
2,1, 7,21, 0, 8, 0.00,60.00,SummerDesignDay
8,20.917992548817627
11,20239450150.475908
252,12827009976.945118
2,1, 7,21, 0, 8, 0.00,60.00,SummerDesignDay
692,23.985164955764135
732,24.113620793511957
772,24.11302391637728
812,26.00851515331219
2,1, 7,21, 0, 9, 0.00,60.00,SummerDesignDay
8,22.420023807696297
11,21330500049.69535
252,12792979605.772797
2,1, 7,21, 0, 9, 0.00,60.00,SummerDesignDay
692,23.9768814218686
732,24.00170664309789
772,24.001555112312258
812,25.976828660357499
2,1, 7,21, 0,10, 0.00,60.00,SummerDesignDay
8,22.854695006230427
11,21802568287.177396
252,12424288979.677351
2,1, 7,21, 0,10, 0.00,60.00,SummerDesignDay
692,23.97389639735161
732,23.99911091339415
772,23.998972241085708
812,25.97043166479685
2,1, 7,21, 0,11, 0.00,60.00,SummerDesignDay
8,23.232104587122938
11,22246531251.68882
252,12377344449.578003
2,1, 7,21, 0,11, 0.00,60.00,SummerDesignDay
692,23.972467590664299
732,23.998135301473004
772,23.9980001070262
812,25.96696265543585
2,1, 7,21, 0,12, 0.00,60.00,SummerDesignDay
8,23.480593542408348
11,22362249998.417406
252,12424919122.314538
2,1, 7,21, 0,12, 0.00,60.00,SummerDesignDay
692,23.971805470771164
732,23.99782291418229
772,23.99768977209887
812,25.965277668659913
2,1, 7,21, 0,13, 0.00,60.00,SummerDesignDay
8,23.677626430315248
11,22294707121.417966
252,12287140044.428158
2,1, 7,21, 0,13, 0.00,60.00,SummerDesignDay
692,23.971352624384275
732,23.997675755237066
772,23.997543683285888
812,25.964450697959717
2,1, 7,21, 0,14, 0.00,60.00,SummerDesignDay
8,23.799986320868798
11,22229896031.95056
252,12109349168.140652
2,1, 7,21, 0,14, 0.00,60.00,SummerDesignDay
692,23.970961330259738
732,23.997522703186865
772,23.997390919962649
812,25.96404939497134
2,1, 7,21, 0,15, 0.00,60.00,SummerDesignDay
8,23.799986320868798
11,22112178746.243345
252,11955094664.024819
2,1, 7,21, 0,15, 0.00,60.00,SummerDesignDay
692,23.970779165579015
732,23.997389849650749
772,23.997259055808997
812,25.963968147387484
2,1, 7,21, 0,16, 0.00,60.00,SummerDesignDay
8,23.653081835774505
11,22090149313.185434
252,11954880826.34323
2,1, 7,21, 0,16, 0.00,60.00,SummerDesignDay
692,23.970804205725945
732,23.997336308931016
772,23.997208812036303
812,25.964121274403298
2,1, 7,21, 0,17, 0.00,60.00,SummerDesignDay
8,23.4558543827806
11,22060636128.557069
252,11954663425.161755
2,1, 7,21, 0,17, 0.00,60.00,SummerDesignDay
692,23.970904802008307
732,23.997340316732573
772,23.997217146472058
812,25.964343377262556
2,1, 7,21, 0,18, 0.00,60.00,SummerDesignDay
8,23.207119318496696
11,22163698199.256566
252,12377324664.271855
2,1, 7,21, 0,18, 0.00,60.00,SummerDesignDay
692,23.97104761143108
732,23.99738412772597
772,23.997264219263344
812,25.96457244532888
2,1, 7,21, 0,19, 0.00,60.00,SummerDesignDay
8,22.82933132300861
11,22328874097.860986
252,12793779311.189438
2,1, 7,21, 0,19, 0.00,60.00,SummerDesignDay
692,23.971256552083898
732,23.997489467102449
772,23.997372194781904
812,25.96485945729286
2,1, 7,21, 0,20, 0.00,60.00,SummerDesignDay
8,22.548645905899027
11,21031013506.43462
252,12827633190.161774
2,1, 7,21, 0,20, 0.00,60.00,SummerDesignDay
692,23.97142950412474
732,23.9976506405567
772,23.99752560146108
812,25.96506361184112
2,1, 7,21, 0,21, 0.00,60.00,SummerDesignDay
8,22.312987690310977
11,21408483341.24381
252,12469205942.99892
2,1, 7,21, 0,21, 0.00,60.00,SummerDesignDay
692,23.971211677722907
732,23.997688613779766
772,23.997553758704354
812,25.964928109132388
2,1, 7,21, 0,22, 0.00,60.00,SummerDesignDay
8,21.475995587251039
11,20762528707.497686
252,12792852836.528738
2,1, 7,21, 0,22, 0.00,60.00,SummerDesignDay
692,23.970792701642947
732,23.99756834887459
772,23.99743395700136
812,25.964620230155899
2,1, 7,21, 0,23, 0.00,60.00,SummerDesignDay
8,20.824995071347869
11,19751912634.840837
252,12424564355.445488
2,1, 7,21, 0,23, 0.00,60.00,SummerDesignDay
692,23.98511938483405
732,25.380686036943687
772,25.371118629196926
812,25.979320706925777
2,1, 7,21, 0,24, 0.00,60.00,SummerDesignDay
8,20.173995840857065
11,19023815061.840829
252,11890422401.055802
2,1, 7,21, 0,24, 0.00,60.00,SummerDesignDay
692,23.982193476287827
732,25.844456706128058
772,25.82957287844431
812,25.976816395127338
3,1, 7,21, 0,SummerDesignDay
693,61.485805501403039,60.91634359516328,16,60,61.99799347938363, 2,60
733,47.28794899789259,41.839542670260687, 5,60,50.5865993018884,22,60
773,47.489251060191978,42.03398462158416, 5,60,50.788410170664047,22,60
813,52.70217442121196,51.921336753495797,15,60,53.5612100031524,21,60
4,1, 7
7,22.812875000000003,18.5,21, 5,60,27.8,21,14,60
1,BUFFALO NIAGARA INTL AP ANN HTG 99.6% CONDNS DB,  42.93, -78.73,  -5.00, 215.00
2,1, 1,21, 0, 1, 0.00,60.00,WinterDesignDay
8,-16.3
11,4251693105.975655
252,38037116018.47143
2,1, 1,21, 0, 1, 0.00,60.00,WinterDesignDay
692,13.903490598817033
732,15.723739172656002
772,15.681383987533609
812,18.987060886580335
2,1, 1,21, 0, 2, 0.00,60.00,WinterDesignDay
8,-16.3
11,3866789320.764404
252,32195541808.5451
2,1, 1,21, 0, 2, 0.00,60.00,WinterDesignDay
692,13.903490413835302
732,15.602873187358739
772,15.599925568187624
812,18.98474265597964
2,1, 1,21, 0, 3, 0.00,60.00,WinterDesignDay
8,-16.3
11,3866915693.8869559
252,32278778595.558809
2,1, 1,21, 0, 3, 0.00,60.00,WinterDesignDay
692,13.903490243214936
732,15.602111440359613
772,15.600689338573057
812,18.984652821554126
2,1, 1,21, 0, 4, 0.00,60.00,WinterDesignDay
8,-16.3
11,3867147207.63598
252,32430533111.45288
2,1, 1,21, 0, 4, 0.00,60.00,WinterDesignDay
692,13.90349008416094
732,15.597032756335395
772,15.59830924730668
812,18.984530804471644
2,1, 1,21, 0, 5, 0.00,60.00,WinterDesignDay
8,-16.3
11,3867329213.6110684
252,32542795414.950986
2,1, 1,21, 0, 5, 0.00,60.00,WinterDesignDay
692,13.903489931423732
732,15.600130939335
772,15.603289324991583
812,18.984338817908666
2,1, 1,21, 0, 6, 0.00,60.00,WinterDesignDay
8,-16.3
11,3871198687.02522
252,33584667675.64078
2,1, 1,21, 0, 6, 0.00,60.00,WinterDesignDay
692,13.903489788490152
732,17.519571500490014
772,17.51167607356629
812,18.99444109017844
2,1, 1,21, 0, 7, 0.00,60.00,WinterDesignDay
8,-16.3
11,3943534033.013726
252,41255413528.49595
2,1, 1,21, 0, 7, 0.00,60.00,WinterDesignDay
692,13.903489645496523
732,19.41350630367357
772,19.40703606690574
812,18.995559896205458
2,1, 1,21, 0, 8, 0.00,60.00,WinterDesignDay
8,-16.3
11,3946051902.344877
252,41739087239.660419
2,1, 1,21, 0, 8, 0.00,60.00,WinterDesignDay
692,13.903489514694858
732,20.73752541161449
772,20.713271158727136
812,18.994633511403067
2,1, 1,21, 0, 9, 0.00,60.00,WinterDesignDay
8,-16.3
11,2963661953.850915
252,40989585516.54906
2,1, 1,21, 0, 9, 0.00,60.00,WinterDesignDay
692,13.903489385822441
732,21.003776886252845
772,20.99667330456006
812,18.987849858904189
2,1, 1,21, 0,10, 0.00,60.00,WinterDesignDay
8,-16.3
11,3957365425.690686
252,42170405912.18599
2,1, 1,21, 0,10, 0.00,60.00,WinterDesignDay
692,13.903489265285052
732,21.000026653929465
772,21.00229109743777
812,18.985461454621139
2,1, 1,21, 0,11, 0.00,60.00,WinterDesignDay
8,-16.3
11,3838045017.241089
252,41784424733.51174
2,1, 1,21, 0,11, 0.00,60.00,WinterDesignDay
692,13.903489151866746
732,20.997711377003126
772,20.99817528842632
812,18.985026672138578
2,1, 1,21, 0,12, 0.00,60.00,WinterDesignDay
8,-16.3
11,3935993717.514146
252,41872305172.21522
2,1, 1,21, 0,12, 0.00,60.00,WinterDesignDay
692,13.903489043089822
732,21.003763663193014
772,20.99736931509063
812,18.98476717615708
2,1, 1,21, 0,13, 0.00,60.00,WinterDesignDay
8,-16.3
11,3923968863.168454
252,41766114430.00979
2,1, 1,21, 0,13, 0.00,60.00,WinterDesignDay
692,13.903488939125568
732,21.00021259948857
772,21.00454445236151
812,18.984526993114569
2,1, 1,21, 0,14, 0.00,60.00,WinterDesignDay
8,-16.3
11,3825980168.9588048
252,41450757136.679019
2,1, 1,21, 0,14, 0.00,60.00,WinterDesignDay
692,13.903488840364736
732,21.001286215836485
772,21.005491560298205
812,18.984347157354457
2,1, 1,21, 0,15, 0.00,60.00,WinterDesignDay
8,-16.3
11,3729666450.6878397
252,41140565504.704288
2,1, 1,21, 0,15, 0.00,60.00,WinterDesignDay
692,13.90348874619552
732,21.003480741137446
772,21.003507232078836
812,18.984211143807245
2,1, 1,21, 0,16, 0.00,60.00,WinterDesignDay
8,-16.3
11,3718361353.0263855
252,41090030748.66088
2,1, 1,21, 0,16, 0.00,60.00,WinterDesignDay
692,13.90348865679932
732,21.00004997296698
772,20.996753335440518
812,18.98410221267497
2,1, 1,21, 0,17, 0.00,60.00,WinterDesignDay
8,-16.3
11,3628424599.792494
252,41047837451.84465
2,1, 1,21, 0,17, 0.00,60.00,WinterDesignDay
692,13.903488571467154
732,21.001086985266395
772,21.002727878843304
812,18.984013209771065
2,1, 1,21, 0,18, 0.00,60.00,WinterDesignDay
8,-16.3
11,4703853846.354792
252,41028249505.743488
2,1, 1,21, 0,18, 0.00,60.00,WinterDesignDay
692,13.903488489921184
732,20.996719047736066
772,21.00094096497021
812,18.983940465495779
2,1, 1,21, 0,19, 0.00,60.00,WinterDesignDay
8,-16.3
11,4996421756.62508
252,41497642771.738399
2,1, 1,21, 0,19, 0.00,60.00,WinterDesignDay
692,13.903488412916485
732,21.001935361799977
772,20.99869341275673
812,18.983881559705709
2,1, 1,21, 0,20, 0.00,60.00,WinterDesignDay
8,-16.3
11,4981109071.005629
252,41480762859.03009
2,1, 1,21, 0,20, 0.00,60.00,WinterDesignDay
692,13.903488339356937
732,21.00202503451249
772,21.00091281588533
812,18.983833364839474
2,1, 1,21, 0,21, 0.00,60.00,WinterDesignDay
8,-16.3
11,4859233277.190956
252,41467089680.03622
2,1, 1,21, 0,21, 0.00,60.00,WinterDesignDay
692,13.90348827010583
732,20.999539863423274
772,21.0009618943403
812,18.98379445290232
2,1, 1,21, 0,22, 0.00,60.00,WinterDesignDay
8,-16.3
11,4964399037.442542
252,41456747087.305759
2,1, 1,21, 0,22, 0.00,60.00,WinterDesignDay
692,13.903488203744948
732,21.001798927048897
772,20.995752275177194
812,18.98376252629216
2,1, 1,21, 0,23, 0.00,60.00,WinterDesignDay
8,-16.3
11,4646954188.727095
252,38657161801.03894
2,1, 1,21, 0,23, 0.00,60.00,WinterDesignDay
692,13.903488141113034
732,17.81624986205313
772,17.733324692708587
812,18.9996942327344
2,1, 1,21, 0,24, 0.00,60.00,WinterDesignDay
8,-16.3
11,4455673167.839184
252,38244981217.586048
2,1, 1,21, 0,24, 0.00,60.00,WinterDesignDay
692,13.903488077325202
732,16.295219396789308
772,16.18676376926387
812,18.995143850186506
3,1, 1,21, 0,WinterDesignDay
693,9.223111814600872,9.223110827784315, 1,60,9.223112541916813,23,12
733,6.610130409358956,5.888725099988261, 9,60,8.268297659279672, 4,60
773,6.615736912916869,5.888104483222339,14,60,8.267621129738016, 4,60
813,6.672353472828529,6.665364096480022,23,54,6.673707531630484,22,60
4,1, 1
7,-16.300000000000009,-16.3,21, 1,60,-16.3,21, 1,60
End of Data
 Number of Records Written=         519
