Program Version,EnergyPlus, Version 9.1.0-fafb9d5652, YMD=2020.03.22 22:57
1,5,Environment Title[],Latitude[deg],Longitude[deg],Time Zone[],Elevation[m]
2,8,Day of Simulation[],Month[],Day of Month[],DST Indicator[1=yes 0=no],Hour[],StartMinute[],EndMinute[],DayType
3,5,Cumulative Day of Simulation[],Month[],Day of Month[],DST Indicator[1=yes 0=no],DayType  ! When Daily Report Variables Requested
4,2,Cumulative Days of Simulation[],Month[]  ! When Monthly Report Variables Requested
5,1,Cumulative Days of Simulation[] ! When Run Period Report Variables Requested
6,1,Calendar Year of Simulation[] ! When Annual Report Variables Requested
7,9,Environment,Site Outdoor Air Drybulb Temperature [C] !Monthly [Value,Min,Day,Hour,Minute,Max,Day,Hour,Minute]
8,1,Environment,Site Outdoor Air Wetbulb Temperature [C] !TimeStep
403,1,ZONE OFFICE WHOLEBUILDING - SM OFFICE  - STORY GROUND,Zone Air Temperature [C] !Hourly
404,7,ZONE OFFICE WHOLEBUILDING - SM OFFICE  - STORY GROUND,Zone Air Relative Humidity [%] !Daily [Value,Min,Hour,Minute,Max,Hour,Minute]
10,1,Electricity:Facility [J] !TimeStep
169,1,Gas:Facility [J] !TimeStep
End of Data Dictionary
1,DENVER CENTENNIAL  GOLDEN   N ANN CLG .4% CONDNS DB=>MWB 1,  39.74,-105.18,  -7.00,1829.00
2,1, 7,21, 0, 1, 0.00,60.00,SummerDesignDay
8,11.15397062550071
10,10954270.961158248
169,0.0
2,1, 7,21, 0, 1, 0.00,60.00,SummerDesignDay
403,23.889424460523505
2,1, 7,21, 0, 2, 0.00,60.00,SummerDesignDay
8,10.92745699590936
10,10823311.66045444
169,340880.8955703444
2,1, 7,21, 0, 2, 0.00,60.00,SummerDesignDay
403,23.889459332345827
2,1, 7,21, 0, 3, 0.00,60.00,SummerDesignDay
8,10.756320373962464
10,10717984.816739873
169,774409.7567005615
2,1, 7,21, 0, 3, 0.00,60.00,SummerDesignDay
403,23.889488752064623
2,1, 7,21, 0, 4, 0.00,60.00,SummerDesignDay
8,10.584087228911649
10,10617813.294397694
169,774409.7567005615
2,1, 7,21, 0, 4, 0.00,60.00,SummerDesignDay
403,23.889516009479818
2,1, 7,21, 0, 5, 0.00,60.00,SummerDesignDay
8,10.468660294393305
10,10539662.72869318
169,774409.7567005615
2,1, 7,21, 0, 5, 0.00,60.00,SummerDesignDay
403,23.889539737349979
2,1, 7,21, 0, 6, 0.00,60.00,SummerDesignDay
8,10.584087228911649
10,9084184.864150882
169,774409.7567005615
2,1, 7,21, 0, 6, 0.00,60.00,SummerDesignDay
403,23.88945571261742
2,1, 7,21, 0, 7, 0.00,60.00,SummerDesignDay
8,10.984266681195179
10,9748934.317822794
169,774409.7567005615
2,1, 7,21, 0, 7, 0.00,60.00,SummerDesignDay
403,23.88928210689585
2,1, 7,21, 0, 8, 0.00,60.00,SummerDesignDay
8,11.932055717348942
10,10602339.489655568
169,774409.7567005615
2,1, 7,21, 0, 8, 0.00,60.00,SummerDesignDay
403,23.889042455553715
2,1, 7,21, 0, 9, 0.00,60.00,SummerDesignDay
8,12.952857768753026
10,11526291.434209327
169,774409.7567005615
2,1, 7,21, 0, 9, 0.00,60.00,SummerDesignDay
403,23.889156499729759
2,1, 7,21, 0,10, 0.00,60.00,SummerDesignDay
8,13.833688757311478
10,12435169.182173336
169,774409.7567005615
2,1, 7,21, 0,10, 0.00,60.00,SummerDesignDay
403,23.88883157819212
2,1, 7,21, 0,11, 0.00,60.00,SummerDesignDay
8,14.58675236703979
10,13205009.334476868
169,774409.7567005615
2,1, 7,21, 0,11, 0.00,60.00,SummerDesignDay
403,23.888575916385624
2,1, 7,21, 0,12, 0.00,60.00,SummerDesignDay
8,15.076768155641556
10,13657149.005591289
169,774409.7567005615
2,1, 7,21, 0,12, 0.00,60.00,SummerDesignDay
403,23.888486692890127
2,1, 7,21, 0,13, 0.00,60.00,SummerDesignDay
8,15.46210483123339
10,14062924.775404077
169,774409.7567005615
2,1, 7,21, 0,13, 0.00,60.00,SummerDesignDay
403,23.888430708830837
2,1, 7,21, 0,14, 0.00,60.00,SummerDesignDay
8,15.699995481295467
10,14509352.053059994
169,774409.7567005615
2,1, 7,21, 0,14, 0.00,60.00,SummerDesignDay
403,23.888381819325315
2,1, 7,21, 0,15, 0.00,60.00,SummerDesignDay
8,15.699995481295467
10,14629559.479803006
169,774409.7567005615
2,1, 7,21, 0,15, 0.00,60.00,SummerDesignDay
403,23.888365765902607
2,1, 7,21, 0,16, 0.00,60.00,SummerDesignDay
8,15.41425180523316
10,14248493.909479013
169,774409.7567005615
2,1, 7,21, 0,16, 0.00,60.00,SummerDesignDay
403,23.888408443246147
2,1, 7,21, 0,17, 0.00,60.00,SummerDesignDay
8,15.028192925782509
10,13643730.012641142
169,774409.7567005615
2,1, 7,21, 0,17, 0.00,60.00,SummerDesignDay
403,23.8885211645402
2,1, 7,21, 0,18, 0.00,60.00,SummerDesignDay
8,14.53722336202167
10,12948759.019248957
169,774409.7567005615
2,1, 7,21, 0,18, 0.00,60.00,SummerDesignDay
403,23.888819163008667
2,1, 7,21, 0,19, 0.00,60.00,SummerDesignDay
8,13.782690847896104
10,11811952.897034118
169,774409.7567005615
2,1, 7,21, 0,19, 0.00,60.00,SummerDesignDay
403,23.888883286943345
2,1, 7,21, 0,20, 0.00,60.00,SummerDesignDay
8,13.215029529540324
10,13316188.483806914
169,774409.7567005615
2,1, 7,21, 0,20, 0.00,60.00,SummerDesignDay
403,23.889077990912776
2,1, 7,21, 0,21, 0.00,60.00,SummerDesignDay
8,12.741211972216517
10,12799951.733120738
169,774409.7567005615
2,1, 7,21, 0,21, 0.00,60.00,SummerDesignDay
403,23.889200108044617
2,1, 7,21, 0,22, 0.00,60.00,SummerDesignDay
8,12.258686716744988
10,12489660.190261163
169,774409.7567005615
2,1, 7,21, 0,22, 0.00,60.00,SummerDesignDay
403,23.88927798246419
2,1, 7,21, 0,23, 0.00,60.00,SummerDesignDay
8,11.877217274957952
10,12267061.385999056
169,774409.7567005615
2,1, 7,21, 0,23, 0.00,60.00,SummerDesignDay
403,23.88933310474
2,1, 7,21, 0,24, 0.00,60.00,SummerDesignDay
8,11.490207614865766
10,12061187.224538682
169,774409.7567005615
2,1, 7,21, 0,24, 0.00,60.00,SummerDesignDay
403,23.889381872201246
3,1, 7,21, 0,SummerDesignDay
404,34.81308711225204,34.21382558637536, 8,60,35.508179498182467,17,60
4,1, 7
7,24.849,17.8,21, 5,60,33.0,21,14,60
1,DENVER CENTENNIAL  GOLDEN   N ANN CLG .4% CONDNS WB=>MDB 1,  39.74,-105.18,  -7.00,1829.00
2,1, 7,21, 0, 1, 0.00,60.00,SummerDesignDay
8,13.923995971679688
10,10125160.822906094
169,0.0
2,1, 7,21, 0, 1, 0.00,60.00,SummerDesignDay
403,23.88894663179145
2,1, 7,21, 0, 2, 0.00,60.00,SummerDesignDay
8,13.315994262695313
10,10002129.05480475
169,340880.8955703444
2,1, 7,21, 0, 2, 0.00,60.00,SummerDesignDay
403,23.889123966302244
2,1, 7,21, 0, 3, 0.00,60.00,SummerDesignDay
8,12.859992980957032
10,9910512.700882907
169,774409.7567005615
2,1, 7,21, 0, 3, 0.00,60.00,SummerDesignDay
403,23.889267489578086
2,1, 7,21, 0, 4, 0.00,60.00,SummerDesignDay
8,12.403996897928592
10,9797854.703869887
169,774409.7567005615
2,1, 7,21, 0, 4, 0.00,60.00,SummerDesignDay
403,23.88947491642628
2,1, 7,21, 0, 5, 0.00,60.00,SummerDesignDay
8,12.099995097522145
10,9714096.081313868
169,774409.7567005615
2,1, 7,21, 0, 5, 0.00,60.00,SummerDesignDay
403,23.889638133161438
2,1, 7,21, 0, 6, 0.00,60.00,SummerDesignDay
8,12.403996897928592
10,8303638.0105462749
169,774409.7567005615
2,1, 7,21, 0, 6, 0.00,60.00,SummerDesignDay
403,23.88977020506851
2,1, 7,21, 0, 7, 0.00,60.00,SummerDesignDay
8,13.467993842889325
10,8945377.533364699
169,774409.7567005615
2,1, 7,21, 0, 7, 0.00,60.00,SummerDesignDay
403,23.88970653298603
2,1, 7,21, 0, 8, 0.00,60.00,SummerDesignDay
8,15.026980912861477
10,9891805.347552604
169,774409.7567005615
2,1, 7,21, 0, 8, 0.00,60.00,SummerDesignDay
403,23.889361107102439
2,1, 7,21, 0, 9, 0.00,60.00,SummerDesignDay
8,15.937089718832825
10,10829098.028056413
169,774409.7567005615
2,1, 7,21, 0, 9, 0.00,60.00,SummerDesignDay
403,23.888696148490224
2,1, 7,21, 0,10, 0.00,60.00,SummerDesignDay
8,16.72459186739077
10,11696863.957041759
169,774409.7567005615
2,1, 7,21, 0,10, 0.00,60.00,SummerDesignDay
403,23.887970374610807
2,1, 7,21, 0,11, 0.00,60.00,SummerDesignDay
8,17.399496008481628
10,12349079.98969529
169,774409.7567005615
2,1, 7,21, 0,11, 0.00,60.00,SummerDesignDay
403,23.887365829134006
2,1, 7,21, 0,12, 0.00,60.00,SummerDesignDay
8,17.839477247828787
10,12665451.282027847
169,774409.7567005615
2,1, 7,21, 0,12, 0.00,60.00,SummerDesignDay
403,23.88698140134109
2,1, 7,21, 0,13, 0.00,60.00,SummerDesignDay
8,18.185914819295033
10,12963712.473823425
169,774409.7567005615
2,1, 7,21, 0,13, 0.00,60.00,SummerDesignDay
403,23.886727064625803
2,1, 7,21, 0,14, 0.00,60.00,SummerDesignDay
8,18.399989103499605
10,13336491.116129572
169,774409.7567005615
2,1, 7,21, 0,14, 0.00,60.00,SummerDesignDay
403,23.88646964081022
2,1, 7,21, 0,15, 0.00,60.00,SummerDesignDay
8,18.399989103499605
10,13431081.743520795
169,774409.7567005615
2,1, 7,21, 0,15, 0.00,60.00,SummerDesignDay
403,23.88627616935025
2,1, 7,21, 0,16, 0.00,60.00,SummerDesignDay
8,18.142873268396757
10,13084820.518133952
169,774409.7567005615
2,1, 7,21, 0,16, 0.00,60.00,SummerDesignDay
403,23.886278879158306
2,1, 7,21, 0,17, 0.00,60.00,SummerDesignDay
8,17.79583170118241
10,12531788.053100054
169,774409.7567005615
2,1, 7,21, 0,17, 0.00,60.00,SummerDesignDay
403,23.886440999223074
2,1, 7,21, 0,18, 0.00,60.00,SummerDesignDay
8,17.35506872127216
10,11862818.261928523
169,774409.7567005615
2,1, 7,21, 0,18, 0.00,60.00,SummerDesignDay
403,23.886715482159248
2,1, 7,21, 0,19, 0.00,60.00,SummerDesignDay
8,16.678946649841046
10,10784063.620695059
169,774409.7567005615
2,1, 7,21, 0,19, 0.00,60.00,SummerDesignDay
403,23.887174826955076
2,1, 7,21, 0,20, 0.00,60.00,SummerDesignDay
8,16.17127464663612
10,12364107.116091023
169,774409.7567005615
2,1, 7,21, 0,20, 0.00,60.00,SummerDesignDay
403,23.887777975353918
2,1, 7,21, 0,21, 0.00,60.00,SummerDesignDay
8,15.748172556581446
10,11894309.559680885
169,774409.7567005615
2,1, 7,21, 0,21, 0.00,60.00,SummerDesignDay
403,23.88817696621182
2,1, 7,21, 0,22, 0.00,60.00,SummerDesignDay
8,15.317908014352805
10,11609607.743527847
169,774409.7567005615
2,1, 7,21, 0,22, 0.00,60.00,SummerDesignDay
403,23.88842552158936
2,1, 7,21, 0,23, 0.00,60.00,SummerDesignDay
8,14.978172949417762
10,11409494.662443892
169,774409.7567005615
2,1, 7,21, 0,23, 0.00,60.00,SummerDesignDay
403,23.888618253868868
2,1, 7,21, 0,24, 0.00,60.00,SummerDesignDay
8,14.633880152931229
10,11221325.42456586
169,774409.7567005615
2,1, 7,21, 0,24, 0.00,60.00,SummerDesignDay
403,23.888773422684755
3,1, 7,21, 0,SummerDesignDay
404,47.30764685995256,43.26807880264435,17,60,51.53624524292116, 5,60
4,1, 7
7,19.149,12.100000000000002,21, 5,60,27.3,21,14,60
1,DENVER CENTENNIAL  GOLDEN   N ANN HTG 99.6% CONDNS DB 1,  39.74,-105.18,  -7.00,1829.00
2,1,12,21, 0, 1, 0.00,60.00,WinterDesignDay
8,-18.8
10,3708004.2373935177
169,30946306.138697395
2,1,12,21, 0, 1, 0.00,60.00,WinterDesignDay
403,21.109999999999905
2,1,12,21, 0, 2, 0.00,60.00,WinterDesignDay
8,-18.8
10,3708004.2373935177
169,31287189.8891172
2,1,12,21, 0, 2, 0.00,60.00,WinterDesignDay
403,21.109999999999965
2,1,12,21, 0, 3, 0.00,60.00,WinterDesignDay
8,-18.8
10,3708004.2373935177
169,31720721.477607494
2,1,12,21, 0, 3, 0.00,60.00,WinterDesignDay
403,21.1100000000003
2,1,12,21, 0, 4, 0.00,60.00,WinterDesignDay
8,-18.8
10,3708004.2373935177
169,31720724.083172017
2,1,12,21, 0, 4, 0.00,60.00,WinterDesignDay
403,21.10999999999948
2,1,12,21, 0, 5, 0.00,60.00,WinterDesignDay
8,-18.8
10,3708004.2373935177
169,31720726.572386926
2,1,12,21, 0, 5, 0.00,60.00,WinterDesignDay
403,21.10999999999982
2,1,12,21, 0, 6, 0.00,60.00,WinterDesignDay
8,-18.8
10,3708004.2373935177
169,31720728.950442267
2,1,12,21, 0, 6, 0.00,60.00,WinterDesignDay
403,21.110000000000249
2,1,12,21, 0, 7, 0.00,60.00,WinterDesignDay
8,-18.8
10,4637520.240483301
169,31720731.2223062
2,1,12,21, 0, 7, 0.00,60.00,WinterDesignDay
403,21.110000000000395
2,1,12,21, 0, 8, 0.00,60.00,WinterDesignDay
8,-18.8
10,1911867.890916726
169,31720733.392720138
2,1,12,21, 0, 8, 0.00,60.00,WinterDesignDay
403,21.110000000000139
2,1,12,21, 0, 9, 0.00,60.00,WinterDesignDay
8,-18.8
10,1911867.890916726
169,31720735.46622112
2,1,12,21, 0, 9, 0.00,60.00,WinterDesignDay
403,21.109999999999425
2,1,12,21, 0,10, 0.00,60.00,WinterDesignDay
8,-18.8
10,1911867.890916726
169,31720737.44714026
2,1,12,21, 0,10, 0.00,60.00,WinterDesignDay
403,21.11000000000011
2,1,12,21, 0,11, 0.00,60.00,WinterDesignDay
8,-18.8
10,1911867.890916726
169,31720739.33959921
2,1,12,21, 0,11, 0.00,60.00,WinterDesignDay
403,21.11000000000035
2,1,12,21, 0,12, 0.00,60.00,WinterDesignDay
8,-18.8
10,1911867.890916726
169,31720741.14755891
2,1,12,21, 0,12, 0.00,60.00,WinterDesignDay
403,21.11000000000012
2,1,12,21, 0,13, 0.00,60.00,WinterDesignDay
8,-18.8
10,1911867.890916726
169,31720742.874793684
2,1,12,21, 0,13, 0.00,60.00,WinterDesignDay
403,21.110000000000043
2,1,12,21, 0,14, 0.00,60.00,WinterDesignDay
8,-18.8
10,1911867.890916726
169,31720744.524908667
2,1,12,21, 0,14, 0.00,60.00,WinterDesignDay
403,21.109999999999706
2,1,12,21, 0,15, 0.00,60.00,WinterDesignDay
8,-18.8
10,1911867.890916726
169,31720746.101347235
2,1,12,21, 0,15, 0.00,60.00,WinterDesignDay
403,21.1099999999999
2,1,12,21, 0,16, 0.00,60.00,WinterDesignDay
8,-18.8
10,1911867.890916726
169,31720747.60739884
2,1,12,21, 0,16, 0.00,60.00,WinterDesignDay
403,21.109999999999649
2,1,12,21, 0,17, 0.00,60.00,WinterDesignDay
8,-18.8
10,1911867.890916726
169,31720749.046211777
2,1,12,21, 0,17, 0.00,60.00,WinterDesignDay
403,21.109999999999883
2,1,12,21, 0,18, 0.00,60.00,WinterDesignDay
8,-18.8
10,4637783.894006509
169,31720750.420782184
2,1,12,21, 0,18, 0.00,60.00,WinterDesignDay
403,21.110000000000583
2,1,12,21, 0,19, 0.00,60.00,WinterDesignDay
8,-18.8
10,4637783.894006509
169,31720751.7339773
2,1,12,21, 0,19, 0.00,60.00,WinterDesignDay
403,21.109999999999894
2,1,12,21, 0,20, 0.00,60.00,WinterDesignDay
8,-18.8
10,4637783.894006509
169,31720752.98855075
2,1,12,21, 0,20, 0.00,60.00,WinterDesignDay
403,21.110000000000274
2,1,12,21, 0,21, 0.00,60.00,WinterDesignDay
8,-18.8
10,4637783.894006509
169,31720754.187110098
2,1,12,21, 0,21, 0.00,60.00,WinterDesignDay
403,21.10999999999947
2,1,12,21, 0,22, 0.00,60.00,WinterDesignDay
8,-18.8
10,4637783.894006509
169,31720755.33216424
2,1,12,21, 0,22, 0.00,60.00,WinterDesignDay
403,21.110000000000125
2,1,12,21, 0,23, 0.00,60.00,WinterDesignDay
8,-18.8
10,4637520.240483301
169,31720756.4260933
2,1,12,21, 0,23, 0.00,60.00,WinterDesignDay
403,21.110000000000047
2,1,12,21, 0,24, 0.00,60.00,WinterDesignDay
8,-18.8
10,4637520.240483301
169,31720757.47118915
2,1,12,21, 0,24, 0.00,60.00,WinterDesignDay
403,21.110000000000018
3,1,12,21, 0,WinterDesignDay
404,4.623636526283932,4.623636526283933, 1,60,4.623636526283933, 1,60
4,1,12
7,-18.800000000000009,-18.8,21, 1,60,-18.8,21, 1,60
End of Data
 Number of Records Written=         294
