Program Version,EnergyPlus, Version 9.3.0-baff08990c, YMD=2020.11.01 22:46
1,5,Environment Title[],Latitude[deg],Longitude[deg],Time Zone[],Elevation[m]
2,8,Day of Simulation[],Month[],Day of Month[],DST Indicator[1=yes 0=no],Hour[],StartMinute[],EndMinute[],DayType
3,5,Cumulative Day of Simulation[],Month[],Day of Month[],DST Indicator[1=yes 0=no],DayType  ! When Daily Report Variables Requested
4,2,Cumulative Days of Simulation[],Month[]  ! When Monthly Report Variables Requested
5,1,Cumulative Days of Simulation[] ! When Run Period Report Variables Requested
6,1,Calendar Year of Simulation[] ! When Annual Report Variables Requested
8,1,Electricity:Facility [J] !TimeStep
565,1,Gas:Facility [J] !TimeStep
End of Data Dictionary
1,DENVER CENTENNIAL  GOLDEN   N ANN CLG .4% CONDNS DB=>MWB 1 HVAC Sizing Pass 1,  39.74,-105.18,  -7.00,1829.00
2,1, 7,21, 0, 1, 0.00,60.00,SummerDesignDay
8,10017436.042006938
565,0.0
2,1, 7,21, 0, 2, 0.00,60.00,SummerDesignDay
8,9890884.14283536
565,340880.8955703444
2,1, 7,21, 0, 3, 0.00,60.00,SummerDesignDay
8,9790740.258807809
565,774409.7567005615
2,1, 7,21, 0, 4, 0.00,60.00,SummerDesignDay
8,9695068.175834299
565,774409.7567005615
2,1, 7,21, 0, 5, 0.00,60.00,SummerDesignDay
8,9619906.778090302
565,774409.7567005615
2,1, 7,21, 0, 6, 0.00,60.00,SummerDesignDay
8,8186014.04873913
565,774409.7567005615
2,1, 7,21, 0, 7, 0.00,60.00,SummerDesignDay
8,8681065.390734645
565,774409.7567005615
2,1, 7,21, 0, 8, 0.00,60.00,SummerDesignDay
8,9398857.730757744
565,774409.7567005615
2,1, 7,21, 0, 9, 0.00,60.00,SummerDesignDay
8,10312789.98143015
565,774409.7567005615
2,1, 7,21, 0,10, 0.00,60.00,SummerDesignDay
8,11152068.405241797
565,774409.7567005615
2,1, 7,21, 0,11, 0.00,60.00,SummerDesignDay
8,11851011.864373623
565,774409.7567005615
2,1, 7,21, 0,12, 0.00,60.00,SummerDesignDay
8,12264326.510683043
565,774409.7567005615
2,1, 7,21, 0,13, 0.00,60.00,SummerDesignDay
8,12634696.922791833
565,774409.7567005615
2,1, 7,21, 0,14, 0.00,60.00,SummerDesignDay
8,13049907.634191083
565,774409.7567005615
2,1, 7,21, 0,15, 0.00,60.00,SummerDesignDay
8,13166166.599112718
565,774409.7567005615
2,1, 7,21, 0,16, 0.00,60.00,SummerDesignDay
8,12819000.280671349
565,774409.7567005615
2,1, 7,21, 0,17, 0.00,60.00,SummerDesignDay
8,12258572.079463533
565,774409.7567005615
2,1, 7,21, 0,18, 0.00,60.00,SummerDesignDay
8,11617479.869018777
565,774409.7567005615
2,1, 7,21, 0,19, 0.00,60.00,SummerDesignDay
8,10569167.86031177
565,774409.7567005615
2,1, 7,21, 0,20, 0.00,60.00,SummerDesignDay
8,12190976.499537176
565,774409.7567005615
2,1, 7,21, 0,21, 0.00,60.00,SummerDesignDay
8,11793645.861394087
565,774409.7567005615
2,1, 7,21, 0,22, 0.00,60.00,SummerDesignDay
8,11497877.634662955
565,774409.7567005615
2,1, 7,21, 0,23, 0.00,60.00,SummerDesignDay
8,11293866.343111458
565,774409.7567005615
2,1, 7,21, 0,24, 0.00,60.00,SummerDesignDay
8,11108702.929577526
565,774409.7567005615
1,DENVER CENTENNIAL  GOLDEN   N ANN CLG .4% CONDNS WB=>MDB 1 HVAC Sizing Pass 1,  39.74,-105.18,  -7.00,1829.00
2,1, 7,21, 0, 1, 0.00,60.00,SummerDesignDay
8,9239717.145720205
565,0.0
2,1, 7,21, 0, 2, 0.00,60.00,SummerDesignDay
8,9239717.145720205
565,576171.4270536047
2,1, 7,21, 0, 3, 0.00,60.00,SummerDesignDay
8,9239717.145720205
565,1025277.2617849424
2,1, 7,21, 0, 4, 0.00,60.00,SummerDesignDay
8,9239717.145720205
565,1070093.3494497506
2,1, 7,21, 0, 5, 0.00,60.00,SummerDesignDay
8,9239717.145720205
565,1093853.3048213933
2,1, 7,21, 0, 6, 0.00,60.00,SummerDesignDay
8,7443317.145720204
565,1086893.3512844388
2,1, 7,21, 0, 7, 0.00,60.00,SummerDesignDay
8,7816816.211900337
565,774409.7567005615
2,1, 7,21, 0, 8, 0.00,60.00,SummerDesignDay
8,8634406.237189806
565,774409.7567005615
2,1, 7,21, 0, 9, 0.00,60.00,SummerDesignDay
8,9572444.014760776
565,774409.7567005615
2,1, 7,21, 0,10, 0.00,60.00,SummerDesignDay
8,10471979.912412996
565,774409.7567005615
2,1, 7,21, 0,11, 0.00,60.00,SummerDesignDay
8,11107820.565628328
565,774409.7567005615
2,1, 7,21, 0,12, 0.00,60.00,SummerDesignDay
8,11398419.816584159
565,774409.7567005615
2,1, 7,21, 0,13, 0.00,60.00,SummerDesignDay
8,11666511.88089946
565,774409.7567005615
2,1, 7,21, 0,14, 0.00,60.00,SummerDesignDay
8,12011540.86346357
565,774409.7567005615
2,1, 7,21, 0,15, 0.00,60.00,SummerDesignDay
8,12098865.413774489
565,774409.7567005615
2,1, 7,21, 0,16, 0.00,60.00,SummerDesignDay
8,11773807.562252948
565,774409.7567005615
2,1, 7,21, 0,17, 0.00,60.00,SummerDesignDay
8,11253391.503752133
565,774409.7567005615
2,1, 7,21, 0,18, 0.00,60.00,SummerDesignDay
8,10626434.688599969
565,774409.7567005615
2,1, 7,21, 0,19, 0.00,60.00,SummerDesignDay
8,9617158.41342386
565,774409.7567005615
2,1, 7,21, 0,20, 0.00,60.00,SummerDesignDay
8,11334194.818472648
565,774409.7567005615
2,1, 7,21, 0,21, 0.00,60.00,SummerDesignDay
8,10918021.266085994
565,774409.7567005615
2,1, 7,21, 0,22, 0.00,60.00,SummerDesignDay
8,10620196.072619994
565,774409.7567005615
2,1, 7,21, 0,23, 0.00,60.00,SummerDesignDay
8,10390891.688052526
565,774409.7567005615
2,1, 7,21, 0,24, 0.00,60.00,SummerDesignDay
8,10169233.148809988
565,774409.7567005615
1,DENVER CENTENNIAL  GOLDEN   N ANN HTG 99.6% CONDNS DB 1 HVAC Sizing Pass 1,  39.74,-105.18,  -7.00,1829.00
2,1,12,21, 0, 1, 0.00,60.00,WinterDesignDay
8,3371717.1457202059
565,32605297.52330785
2,1,12,21, 0, 2, 0.00,60.00,WinterDesignDay
8,3371717.1457202059
565,32946476.12415687
2,1,12,21, 0, 3, 0.00,60.00,WinterDesignDay
8,3371717.1457202059
565,33380289.387224053
2,1,12,21, 0, 4, 0.00,60.00,WinterDesignDay
8,3371717.1457202059
565,33380561.080743638
2,1,12,21, 0, 5, 0.00,60.00,WinterDesignDay
8,3371717.1457202059
565,33380820.634129228
2,1,12,21, 0, 6, 0.00,60.00,WinterDesignDay
8,3371717.1457202059
565,33381068.590222
2,1,12,21, 0, 7, 0.00,60.00,WinterDesignDay
8,4301233.148809989
565,33381305.467562263
2,1,12,21, 0, 8, 0.00,60.00,WinterDesignDay
8,1575580.7992434144
565,33381531.76148037
2,1,12,21, 0, 9, 0.00,60.00,WinterDesignDay
8,1575580.7992434144
565,33381747.945138068
2,1,12,21, 0,10, 0.00,60.00,WinterDesignDay
8,1575580.7992434144
565,33381954.470522137
2,1,12,21, 0,11, 0.00,60.00,WinterDesignDay
8,1575580.7992434144
565,33382151.76939412
2,1,12,21, 0,12, 0.00,60.00,WinterDesignDay
8,1575580.7992434144
565,33382340.25419632
2,1,12,21, 0,13, 0.00,60.00,WinterDesignDay
8,1575580.7992434144
565,33382520.31891831
2,1,12,21, 0,14, 0.00,60.00,WinterDesignDay
8,1575580.7992434144
565,33382692.339922739
2,1,12,21, 0,15, 0.00,60.00,WinterDesignDay
8,1575580.7992434144
565,33382856.676735764
2,1,12,21, 0,16, 0.00,60.00,WinterDesignDay
8,1575580.7992434144
565,33383013.672801347
2,1,12,21, 0,17, 0.00,60.00,WinterDesignDay
8,1575580.7992434144
565,33383163.656200775
2,1,12,21, 0,18, 0.00,60.00,WinterDesignDay
8,4301496.802333198
565,33383306.940341753
2,1,12,21, 0,19, 0.00,60.00,WinterDesignDay
8,4301496.802333198
565,33383443.824614344
2,1,12,21, 0,20, 0.00,60.00,WinterDesignDay
8,4301496.802333198
565,33383574.595019357
2,1,12,21, 0,21, 0.00,60.00,WinterDesignDay
8,4301496.802333198
565,33383699.524767676
2,1,12,21, 0,22, 0.00,60.00,WinterDesignDay
8,4301496.802333198
565,33383818.874853285
2,1,12,21, 0,23, 0.00,60.00,WinterDesignDay
8,4301233.148809989
565,33383932.894598687
2,1,12,21, 0,24, 0.00,60.00,WinterDesignDay
8,4301233.148809989
565,33384041.822179069
1,DENVER CENTENNIAL  GOLDEN   N ANN CLG .4% CONDNS DB=>MWB 1,  39.74,-105.18,  -7.00,1829.00
2,1, 7,21, 0, 1, 0.00,60.00,SummerDesignDay
8,10017436.042006938
565,0.0
2,1, 7,21, 0, 2, 0.00,60.00,SummerDesignDay
8,9890884.14283536
565,340880.8955703444
2,1, 7,21, 0, 3, 0.00,60.00,SummerDesignDay
8,9790740.258807809
565,774409.7567005615
2,1, 7,21, 0, 4, 0.00,60.00,SummerDesignDay
8,9695068.175834299
565,774409.7567005615
2,1, 7,21, 0, 5, 0.00,60.00,SummerDesignDay
8,9619906.778090302
565,774409.7567005615
2,1, 7,21, 0, 6, 0.00,60.00,SummerDesignDay
8,8186014.04873913
565,774409.7567005615
2,1, 7,21, 0, 7, 0.00,60.00,SummerDesignDay
8,8681065.390734645
565,774409.7567005615
2,1, 7,21, 0, 8, 0.00,60.00,SummerDesignDay
8,9398857.730757744
565,774409.7567005615
2,1, 7,21, 0, 9, 0.00,60.00,SummerDesignDay
8,10312789.98143015
565,774409.7567005615
2,1, 7,21, 0,10, 0.00,60.00,SummerDesignDay
8,11152068.405241797
565,774409.7567005615
2,1, 7,21, 0,11, 0.00,60.00,SummerDesignDay
8,11851011.864373623
565,774409.7567005615
2,1, 7,21, 0,12, 0.00,60.00,SummerDesignDay
8,12264326.510683043
565,774409.7567005615
2,1, 7,21, 0,13, 0.00,60.00,SummerDesignDay
8,12634696.922791833
565,774409.7567005615
2,1, 7,21, 0,14, 0.00,60.00,SummerDesignDay
8,13049907.634191083
565,774409.7567005615
2,1, 7,21, 0,15, 0.00,60.00,SummerDesignDay
8,13166166.599112718
565,774409.7567005615
2,1, 7,21, 0,16, 0.00,60.00,SummerDesignDay
8,12819000.280671349
565,774409.7567005615
2,1, 7,21, 0,17, 0.00,60.00,SummerDesignDay
8,12258572.079463533
565,774409.7567005615
2,1, 7,21, 0,18, 0.00,60.00,SummerDesignDay
8,11617479.869018777
565,774409.7567005615
2,1, 7,21, 0,19, 0.00,60.00,SummerDesignDay
8,10569167.86031177
565,774409.7567005615
2,1, 7,21, 0,20, 0.00,60.00,SummerDesignDay
8,12190976.499537176
565,774409.7567005615
2,1, 7,21, 0,21, 0.00,60.00,SummerDesignDay
8,11793645.861394087
565,774409.7567005615
2,1, 7,21, 0,22, 0.00,60.00,SummerDesignDay
8,11497877.634662955
565,774409.7567005615
2,1, 7,21, 0,23, 0.00,60.00,SummerDesignDay
8,11293866.343111458
565,774409.7567005615
2,1, 7,21, 0,24, 0.00,60.00,SummerDesignDay
8,11108702.929577526
565,774409.7567005615
1,DENVER CENTENNIAL  GOLDEN   N ANN CLG .4% CONDNS WB=>MDB 1,  39.74,-105.18,  -7.00,1829.00
2,1, 7,21, 0, 1, 0.00,60.00,SummerDesignDay
8,9239717.145720205
565,0.0
2,1, 7,21, 0, 2, 0.00,60.00,SummerDesignDay
8,9239717.145720205
565,576171.4270536047
2,1, 7,21, 0, 3, 0.00,60.00,SummerDesignDay
8,9239717.145720205
565,1025277.2617849424
2,1, 7,21, 0, 4, 0.00,60.00,SummerDesignDay
8,9239717.145720205
565,1070093.3494497506
2,1, 7,21, 0, 5, 0.00,60.00,SummerDesignDay
8,9239717.145720205
565,1093853.3048213933
2,1, 7,21, 0, 6, 0.00,60.00,SummerDesignDay
8,7443317.145720204
565,1086893.3512844388
2,1, 7,21, 0, 7, 0.00,60.00,SummerDesignDay
8,7816816.211900337
565,774409.7567005615
2,1, 7,21, 0, 8, 0.00,60.00,SummerDesignDay
8,8634406.237189806
565,774409.7567005615
2,1, 7,21, 0, 9, 0.00,60.00,SummerDesignDay
8,9572444.014760776
565,774409.7567005615
2,1, 7,21, 0,10, 0.00,60.00,SummerDesignDay
8,10471979.912412996
565,774409.7567005615
2,1, 7,21, 0,11, 0.00,60.00,SummerDesignDay
8,11107820.565628328
565,774409.7567005615
2,1, 7,21, 0,12, 0.00,60.00,SummerDesignDay
8,11398419.816584159
565,774409.7567005615
2,1, 7,21, 0,13, 0.00,60.00,SummerDesignDay
8,11666511.88089946
565,774409.7567005615
2,1, 7,21, 0,14, 0.00,60.00,SummerDesignDay
8,12011540.86346357
565,774409.7567005615
2,1, 7,21, 0,15, 0.00,60.00,SummerDesignDay
8,12098865.413774489
565,774409.7567005615
2,1, 7,21, 0,16, 0.00,60.00,SummerDesignDay
8,11773807.562252948
565,774409.7567005615
2,1, 7,21, 0,17, 0.00,60.00,SummerDesignDay
8,11253391.503752133
565,774409.7567005615
2,1, 7,21, 0,18, 0.00,60.00,SummerDesignDay
8,10626434.688599969
565,774409.7567005615
2,1, 7,21, 0,19, 0.00,60.00,SummerDesignDay
8,9617158.41342386
565,774409.7567005615
2,1, 7,21, 0,20, 0.00,60.00,SummerDesignDay
8,11334194.818472648
565,774409.7567005615
2,1, 7,21, 0,21, 0.00,60.00,SummerDesignDay
8,10918021.266085994
565,774409.7567005615
2,1, 7,21, 0,22, 0.00,60.00,SummerDesignDay
8,10620196.072619994
565,774409.7567005615
2,1, 7,21, 0,23, 0.00,60.00,SummerDesignDay
8,10390891.688052526
565,774409.7567005615
2,1, 7,21, 0,24, 0.00,60.00,SummerDesignDay
8,10169233.148809988
565,774409.7567005615
1,DENVER CENTENNIAL  GOLDEN   N ANN HTG 99.6% CONDNS DB 1,  39.74,-105.18,  -7.00,1829.00
2,1,12,21, 0, 1, 0.00,60.00,WinterDesignDay
8,3371717.1457202059
565,32605297.52330785
2,1,12,21, 0, 2, 0.00,60.00,WinterDesignDay
8,3371717.1457202059
565,32946476.12415687
2,1,12,21, 0, 3, 0.00,60.00,WinterDesignDay
8,3371717.1457202059
565,33380289.387224053
2,1,12,21, 0, 4, 0.00,60.00,WinterDesignDay
8,3371717.1457202059
565,33380561.080743638
2,1,12,21, 0, 5, 0.00,60.00,WinterDesignDay
8,3371717.1457202059
565,33380820.634129228
2,1,12,21, 0, 6, 0.00,60.00,WinterDesignDay
8,3371717.1457202059
565,33381068.590222
2,1,12,21, 0, 7, 0.00,60.00,WinterDesignDay
8,4301233.148809989
565,33381305.467562263
2,1,12,21, 0, 8, 0.00,60.00,WinterDesignDay
8,1575580.7992434144
565,33381531.76148037
2,1,12,21, 0, 9, 0.00,60.00,WinterDesignDay
8,1575580.7992434144
565,33381747.945138068
2,1,12,21, 0,10, 0.00,60.00,WinterDesignDay
8,1575580.7992434144
565,33381954.470522137
2,1,12,21, 0,11, 0.00,60.00,WinterDesignDay
8,1575580.7992434144
565,33382151.76939412
2,1,12,21, 0,12, 0.00,60.00,WinterDesignDay
8,1575580.7992434144
565,33382340.25419632
2,1,12,21, 0,13, 0.00,60.00,WinterDesignDay
8,1575580.7992434144
565,33382520.31891831
2,1,12,21, 0,14, 0.00,60.00,WinterDesignDay
8,1575580.7992434144
565,33382692.339922739
2,1,12,21, 0,15, 0.00,60.00,WinterDesignDay
8,1575580.7992434144
565,33382856.676735764
2,1,12,21, 0,16, 0.00,60.00,WinterDesignDay
8,1575580.7992434144
565,33383013.672801347
2,1,12,21, 0,17, 0.00,60.00,WinterDesignDay
8,1575580.7992434144
565,33383163.656200775
2,1,12,21, 0,18, 0.00,60.00,WinterDesignDay
8,4301496.802333198
565,33383306.940341753
2,1,12,21, 0,19, 0.00,60.00,WinterDesignDay
8,4301496.802333198
565,33383443.824614344
2,1,12,21, 0,20, 0.00,60.00,WinterDesignDay
8,4301496.802333198
565,33383574.595019357
2,1,12,21, 0,21, 0.00,60.00,WinterDesignDay
8,4301496.802333198
565,33383699.524767676
2,1,12,21, 0,22, 0.00,60.00,WinterDesignDay
8,4301496.802333198
565,33383818.874853285
2,1,12,21, 0,23, 0.00,60.00,WinterDesignDay
8,4301233.148809989
565,33383932.894598687
2,1,12,21, 0,24, 0.00,60.00,WinterDesignDay
8,4301233.148809989
565,33384041.822179069
End of Data
 Number of Records Written=         288
