Program Version,EnergyPlus, Version 9.3.0-baff08990c, YMD=2020.11.01 22:46
1,5,Environment Title[],Latitude[deg],Longitude[deg],Time Zone[],Elevation[m]
2,8,Day of Simulation[],Month[],Day of Month[],DST Indicator[1=yes 0=no],Hour[],StartMinute[],EndMinute[],DayType
3,5,Cumulative Day of Simulation[],Month[],Day of Month[],DST Indicator[1=yes 0=no],DayType  ! When Daily Report Variables Requested
4,2,Cumulative Days of Simulation[],Month[]  ! When Monthly Report Variables Requested
5,1,Cumulative Days of Simulation[] ! When Run Period Report Variables Requested
6,1,Calendar Year of Simulation[] ! When Annual Report Variables Requested
7,1,Environment,Site Outdoor Air Drybulb Temperature [C] !TimeStep
8,1,Environment,Site Outdoor Air Wetbulb Temperature [C] !TimeStep
229,1,ZONE OFFICE WHOLEBUILDING - SM OFFICE  - STORY GROUND,Zone Air Temperature [C] !TimeStep
230,1,ZONE OFFICE WHOLEBUILDING - SM OFFICE  - STORY GROUND,Zone Air Relative Humidity [%] !TimeStep
231,1,ZONE OFFICE WHOLEBUILDING - SM OFFICE  - STORY GROUND,Zone Thermostat Cooling Setpoint Temperature [C] !TimeStep
379,1,ZONE OFFICE WHOLEBUILDING - SM OFFICE  - STORY GROUND OFFICE WHOLEBUILDING - SM OFFICE PEOPLE,Zone Thermal Comfort Fanger Model PMV [] !TimeStep
380,1,ZONE OFFICE WHOLEBUILDING - SM OFFICE  - STORY GROUND OFFICE WHOLEBUILDING - SM OFFICE PEOPLE,Zone Thermal Comfort Fanger Model PPD [%] !TimeStep
381,1,ZONE OFFICE WHOLEBUILDING - SM OFFICE  - STORY GROUND,Zone Thermal Comfort ASHRAE 55 Simple Model Summer Clothes Not Comfortable Time [hr] !TimeStep
382,1,ZONE OFFICE WHOLEBUILDING - SM OFFICE  - STORY GROUND,Zone Thermal Comfort ASHRAE 55 Simple Model Winter Clothes Not Comfortable Time [hr] !TimeStep
383,1,ZONE OFFICE WHOLEBUILDING - SM OFFICE  - STORY GROUND,Zone Thermal Comfort ASHRAE 55 Simple Model Summer or Winter Clothes Not Comfortable Time [hr] !TimeStep
486,1,UTSS COIL 0,Cooling Coil Operating Mode Index [] !TimeStep
487,1,UTSS COIL 0,Cooling Coil Total Cooling Rate [W] !TimeStep
513,1,UTSS COIL 0,Cooling Coil Electric Power [W] !TimeStep
552,1,UTSS COIL 0,Cooling Coil Thermal Storage Mechanical Heat Transfer Rate [W] !TimeStep
553,1,UTSS COIL 0,Cooling Coil Thermal Storage Ambient Heat Transfer Rate [W] !TimeStep
554,1,UTSS COIL 0,Cooling Coil Ice Thermal Storage End Fraction [] !TimeStep
568,1,ZONE OFFICE WHOLEBUILDING - SM OFFICE  - STORY GROUND PSZ-AC ELECTRIC BACKUP HTG COIL,Heating Coil Heating Rate [W] !Hourly
569,1,ZONE OFFICE WHOLEBUILDING - SM OFFICE  - STORY GROUND PSZ-AC ELECTRIC BACKUP HTG COIL,Heating Coil Heating Rate [W] !TimeStep
596,1,ZONE OFFICE WHOLEBUILDING - SM OFFICE  - STORY GROUND PSZ-AC GAS HTG COIL,Heating Coil Heating Rate [W] !Hourly
597,1,ZONE OFFICE WHOLEBUILDING - SM OFFICE  - STORY GROUND PSZ-AC GAS HTG COIL,Heating Coil Heating Rate [W] !TimeStep
10,1,Electricity:Facility [J] !TimeStep
22,1,Electricity:Building [J] !TimeStep
386,1,Electricity:HVAC [J] !TimeStep
515,1,Cooling:Electricity [J] !TimeStep
398,1,Fans:Electricity [J] !TimeStep
571,1,Heating:Electricity [J] !TimeStep
623,1,Heating:Gas [J] !TimeStep
46,1,InteriorLights:Electricity [J] !TimeStep
423,1,ExteriorLights:Electricity [J] !TimeStep
83,1,InteriorEquipment:Electricity [J] !TimeStep
713,1,Pumps:Electricity [J] !TimeStep
912,1,WaterSystems:Gas [J] !TimeStep
763,1,WaterSystems:Water [m3] !TimeStep
599,1,Gas:Facility [J] !TimeStep
739,1,Water:Facility [m3] !TimeStep
End of Data Dictionary
1,DENVER CENTENNIAL  GOLDEN   N ANN CLG .4% CONDNS DB=>MWB 1 HVAC Sizing Pass 1,  39.74,-105.18,  -7.00,1829.00
2,1, 7,21, 0, 1, 0.00,60.00,SummerDesignDay
7,19.624000000000004
8,11.191835451718307
379,0.5419052428290065
380,11.145822499758282
381,0.0
382,1.0
383,0.0
229,25.920759811077248
230,33.34918352571124
231,23.89
487,0.0
513,2007.3190551933258
552,-8018.1368620696289
553,155.284712
554,0.11696513069342875
569,0.0
597,0.0
486,4.0
10,24226191.99083475
22,11736000.000000038
46,7200000.00000002
83,4536000.000000018
386,9761391.990834706
398,2535043.392138732
423,2728800.0000000118
515,7226348.598695973
571,0.0
599,0.0
623,0.0
713,0.0
739,0.0
763,0.0
912,0.0
2,1, 7,21, 0, 1, 0.00,60.00,SummerDesignDay
568,0.0
596,0.0
2,1, 7,21, 0, 2, 0.00,60.00,SummerDesignDay
7,19.016
8,10.963953729719359
379,0.5408898673638651
380,11.122612580218416
381,0.0
382,1.0
383,0.0
229,25.83911195080488
230,33.63301827921654
231,23.89
487,0.0
513,1926.6142965446807
552,-7214.802509498862
553,150.47360799999999
554,0.22205169946705922
569,0.0
597,0.0
486,4.0
10,23935654.85969963
22,11736000.000000038
46,7200000.00000002
83,4536000.000000018
386,9470854.859699583
398,2535043.392138732
423,2728800.0000000118
515,6935811.46756085
571,0.0
599,0.0
623,0.0
713,0.0
739,0.0
763,0.0
912,0.0
2,1, 7,21, 0, 2, 0.00,60.00,SummerDesignDay
568,0.0
596,0.0
2,1, 7,21, 0, 3, 0.00,60.00,SummerDesignDay
7,18.560000000000004
8,10.791779113984397
379,0.5192710340894123
380,10.639035822394888
381,0.0
382,1.0
383,0.0
229,25.694013289119068
230,33.998361033718129
231,23.89
487,0.0
513,1909.534431493716
552,-7086.718140570269
553,146.86528
554,0.3252866047326477
569,0.0
597,0.0
486,4.0
10,23874167.345516158
22,11736000.000000038
46,7200000.00000002
83,4536000.000000018
386,9409367.34551611
398,2535043.392138732
423,2728800.0000000118
515,6874323.953377378
571,0.0
599,0.0
623,0.0
713,0.0
739,0.0
763,0.0
912,0.0
2,1, 7,21, 0, 3, 0.00,60.00,SummerDesignDay
568,0.0
596,0.0
2,1, 7,21, 0, 4, 0.00,60.00,SummerDesignDay
7,18.104
8,10.618495787729284
379,0.48569035816771169
380,9.927985037987512
381,0.0
382,1.0
383,0.0
229,25.521877314103106
230,34.394070084665177
231,23.89
487,0.0
513,1889.440377901259
552,-7060.565954344677
553,143.256952
554,0.4281861551838045
569,0.0
597,0.0
486,4.0
10,23801828.75258331
22,11736000.000000038
46,7200000.00000002
83,4536000.000000018
386,9337028.752583264
398,2535043.392138732
423,2728800.0000000118
515,6801985.360444532
571,0.0
599,0.0
623,0.0
713,0.0
739,0.0
763,0.0
912,0.0
2,1, 7,21, 0, 4, 0.00,60.00,SummerDesignDay
568,0.0
596,0.0
2,1, 7,21, 0, 5, 0.00,60.00,SummerDesignDay
7,17.8
8,10.502360815989663
379,0.44718234391185826
380,9.172495108535046
381,0.0
382,1.0
383,0.0
229,25.349074997019249
230,34.769025831668027
231,23.89
487,0.0
513,1875.2383911268499
552,-7023.096557981696
553,140.8514
554,0.5305641077388983
569,0.0
597,0.0
486,4.0
10,23750701.600195439
22,11736000.000000038
46,7200000.00000002
83,4536000.000000018
386,9285901.600195392
398,2535043.392138732
423,2728800.0000000118
515,6750858.208056659
571,0.0
599,0.0
623,0.0
713,0.0
739,0.0
763,0.0
912,0.0
2,1, 7,21, 0, 5, 0.00,60.00,SummerDesignDay
568,0.0
596,0.0
2,1, 7,21, 0, 6, 0.00,60.00,SummerDesignDay
7,18.104
8,10.618495787729284
379,0.4819969845854975
380,9.852753316059662
381,0.0
382,1.0
383,0.0
229,25.62167349861598
230,34.20789896702943
231,23.89
487,0.0
513,1882.5912372071494
552,-6943.759914731728
553,143.256952
554,0.6317260910288832
569,0.0
597,0.0
486,4.0
10,21048371.846084507
22,11736000.000000038
46,7200000.00000002
83,4536000.000000018
386,9312371.84608447
398,2535043.392138732
423,0.0
515,6777328.453945737
571,0.0
599,0.0
623,0.0
713,0.0
739,0.0
763,0.0
912,0.0
2,1, 7,21, 0, 6, 0.00,60.00,SummerDesignDay
568,0.0
596,0.0
2,1, 7,21, 0, 7, 0.00,60.00,SummerDesignDay
7,19.168
8,11.0211091449253
379,0.6116144584365209
380,12.846172037737574
381,0.0
382,1.0
383,0.0
229,26.569992431111289
230,32.38046442597806
231,23.89
487,0.0
513,1917.4819339737526
552,-6796.03374239117
553,151.676384
554,0.6976736549560143
569,0.0
597,0.0
486,4.0
10,21173978.35444428
22,11736000.000000038
46,7200000.00000002
83,4536000.000000018
386,9437978.354444242
398,2535043.392138732
423,0.0
515,6902934.9623055099
571,0.0
599,0.0
623,0.0
713,0.0
739,0.0
763,0.0
912,0.0
2,1, 7,21, 0, 7, 0.00,60.00,SummerDesignDay
568,0.0
596,0.0
2,1, 7,21, 0, 8, 0.00,60.00,SummerDesignDay
7,21.752000000000004
8,11.974576060941338
379,0.8610587455614787
380,20.648342724106983
381,0.0
382,1.0
383,0.0
229,24.00160830291939
230,38.00295582934708
231,23.889999999999998
487,4571.525515062816
513,1178.675718304763
552,0.0
553,172.123576
554,0.7290717080129998
569,0.0
597,0.0
486,0.9999999999999999
10,18514467.726052796
22,11736000.000000038
46,7200000.00000002
83,4536000.000000018
386,6778275.978035878
398,2535043.3921387318
423,0.0
515,4243232.585897147
571,0.0
599,0.0
623,0.0
713,191.74801687900394
739,0.0011145705360780328
763,0.0011145705360780328
912,0.0
2,1, 7,21, 0, 8, 0.00,60.00,SummerDesignDay
568,0.0
596,0.0
2,1, 7,21, 0, 9, 0.00,60.00,SummerDesignDay
7,24.64
8,13.001358129705418
379,0.5230890035296097
380,10.722966128393992
381,0.0
382,1.0
383,0.0
229,23.888653349632944
230,38.23199219089335
231,23.89
487,4569.014587481967
513,1199.4552105093549
552,0.0
553,194.97632000000002
554,0.7251044511292167
569,0.0
597,0.0
486,1.0
10,18589273.897989327
22,11736000.000000038
46,7200000.00000002
83,4536000.000000018
386,6853082.149972409
398,2535043.392138732
423,0.0
515,4318038.757833677
571,0.0
599,568629.0641523847
623,0.0
713,191.7480168790039
739,0.002270421462381178
763,0.002270421462381178
912,568629.0641523847
2,1, 7,21, 0, 9, 0.00,60.00,SummerDesignDay
568,0.0
596,0.0
2,1, 7,21, 0,10, 0.00,60.00,SummerDesignDay
7,27.224
8,13.887229382070912
379,0.5565703754981327
380,11.486027926761608
381,0.0
382,1.0
383,0.0
229,23.88837732274086
230,38.03913082045345
231,23.89
487,6051.174287974528
513,1688.5470864401876
552,0.0
553,215.42351200000003
554,0.7218998837846185
569,0.0
597,0.0
486,1.0
10,20350004.651340326
22,11736000.000000038
46,7200000.00000002
83,4536000.000000018
386,8613812.903323407
398,2535043.392138732
423,0.0
515,6078769.511184675
571,0.0
599,1473267.3420157026
623,0.0
713,191.7480168790039
739,0.0026419449744071886
763,0.0026419449744071886
912,1473267.3420157026
2,1, 7,21, 0,10, 0.00,60.00,SummerDesignDay
568,0.0
596,0.0
2,1, 7,21, 0,11, 0.00,60.00,SummerDesignDay
7,29.504
8,14.644511774082974
379,0.5886381805249401
380,12.262440314799705
381,0.0
382,1.0
383,0.0
229,23.888234340845849
230,37.86451182272428
231,23.89
487,6778.682292722999
513,1993.631697435071
552,0.0
553,233.46515200000003
554,0.7184269351020212
569,0.0
597,0.0
486,1.0
10,21448309.250921906
22,11736000.000000038
46,7200000.00000002
83,4536000.000000018
386,9712117.502904987
398,2535043.392138732
423,0.0
515,7177074.110766255
571,0.0
599,1473267.3420157026
623,0.0
713,191.7480168790039
739,0.0026419449744071886
763,0.0026419449744071886
912,1473267.3420157026
2,1, 7,21, 0,11, 0.00,60.00,SummerDesignDay
568,0.0
596,0.0
2,1, 7,21, 0,12, 0.00,60.00,SummerDesignDay
7,31.024
8,15.13722993390078
379,0.5995061328868439
380,12.535694196461364
381,0.0
382,1.0
383,0.0
229,23.888169708955549
230,37.731811250101888
231,23.89
487,7037.39365172421
513,2142.1932052503659
552,0.0
553,245.49291200000003
554,0.7147750655274247
569,0.0
597,0.0
486,1.0
10,21983130.679056966
22,11736000.000000038
46,7200000.00000002
83,4536000.000000018
386,10246938.931040049
398,2535043.392138732
423,0.0
515,7711895.538901317
571,0.0
599,12699.651472557829
623,0.0
713,191.7480168790039
739,0.0033849919984592104
763,0.0033849919984592104
912,12699.651472557829
2,1, 7,21, 0,12, 0.00,60.00,SummerDesignDay
568,0.0
596,0.0
2,1, 7,21, 0,13, 0.00,60.00,SummerDesignDay
7,32.24
8,15.524660921842367
379,0.6112168653558892
380,12.835876042646007
381,0.0
382,1.0
383,0.0
229,23.888084145317607
230,37.628583464635429
231,23.89
487,6839.352886337999
513,107.53699506820753
552,6946.889881406207
553,255.11512000000003
554,0.6076404736304188
569,0.0
597,0.0
486,5.0
10,14658368.322401196
22,11736000.000000038
46,7200000.00000002
83,4536000.000000018
386,2922176.574384279
398,2535043.392138732
423,0.0
515,387133.1822455471
571,0.0
599,351731.16293443457
623,0.0
713,191.7480168790039
739,0.0041280390225112329
763,0.0041280390225112329
912,351731.16293443457
2,1, 7,21, 0,13, 0.00,60.00,SummerDesignDay
568,0.0
596,0.0
2,1, 7,21, 0,14, 0.00,60.00,SummerDesignDay
7,33.0
8,15.763840399597484
379,0.6315590282445063
380,13.37145603260602
381,0.0
382,1.0
383,0.0
229,23.887977530158005
230,37.545713364012787
231,23.89
487,7228.125173531533
513,113.64976687942662
552,7341.774940410959
553,261.129
554,0.4945422446332124
569,0.0
597,0.0
486,5.0
10,14680374.300921586
22,11736000.000000038
46,7200000.00000002
83,4536000.000000018
386,2944182.552904668
398,2535043.392138732
423,0.0
515,409139.16076593587
571,0.0
599,1473267.3420157026
623,0.0
713,191.7480168790039
739,0.0037565155104852226
763,0.0037565155104852226
912,1473267.3420157026
2,1, 7,21, 0,14, 0.00,60.00,SummerDesignDay
568,0.0
596,0.0
2,1, 7,21, 0,15, 0.00,60.00,SummerDesignDay
7,33.0
8,15.763840399597484
379,0.6339519570153865
380,13.435638686071372
381,0.0
382,1.0
383,0.0
229,23.887930910138317
230,37.47729613078431
231,23.89
487,7332.834959251858
513,115.29614715804807
552,7448.131106409906
553,261.129
554,0.37986189726233046
569,0.0
597,0.0
486,5.0
10,14686301.269924622
22,11736000.000000038
46,7200000.00000002
83,4536000.000000018
386,2950109.5219077055
398,2535043.392138732
423,0.0
515,415066.12976897307
571,0.0
599,1473267.3420157026
623,0.0
713,191.7480168790039
739,0.002270421462381178
763,0.002270421462381178
912,1473267.3420157026
2,1, 7,21, 0,15, 0.00,60.00,SummerDesignDay
568,0.0
596,0.0
2,1, 7,21, 0,16, 0.00,60.00,SummerDesignDay
7,32.088
8,15.476549026642349
379,0.6098068285460798
380,12.799417306156784
381,0.0
382,1.0
383,0.0
229,23.887981572662075
230,37.41854103733015
231,23.89
487,6986.915442723785
513,109.85716104911615
552,7096.772603772902
553,253.91234400000003
554,0.2705155927416657
569,0.0
597,0.0
486,5.0
10,14666720.919932466
22,11736000.000000038
46,7200000.00000002
83,4536000.000000018
386,2930529.1719155504
398,2535043.392138732
423,0.0
515,395485.7797768181
571,0.0
599,279264.14208926548
623,0.0
713,191.7480168790039
739,0.002270421462381178
763,0.002270421462381178
912,279264.14208926548
2,1, 7,21, 0,16, 0.00,60.00,SummerDesignDay
568,0.0
596,0.0
2,1, 7,21, 0,17, 0.00,60.00,SummerDesignDay
7,30.872
8,15.088388290217204
379,0.5691395612283998
380,11.78503193175571
381,0.0
382,1.0
383,0.0
229,23.888100675034825
230,37.366831439694767
231,23.89
487,6381.091578459904
513,100.33162859213687
552,6481.42320705204
553,244.29013600000003
554,0.17046615455279513
569,0.0
597,0.0
486,5.0
10,14632429.003087342
22,11736000.000000038
46,7200000.00000002
83,4536000.000000018
386,2896237.2550704248
398,2535043.392138732
423,0.0
515,361193.86293169276
571,0.0
599,0.0
623,0.0
713,191.7480168790039
739,0.0030134684864331995
763,0.0030134684864331995
912,0.0
2,1, 7,21, 0,17, 0.00,60.00,SummerDesignDay
568,0.0
596,0.0
2,1, 7,21, 0,18, 0.00,60.00,SummerDesignDay
7,29.352
8,14.59470953108322
379,0.5172796680251963
380,10.595509985132808
381,0.0
382,1.0
383,0.0
229,23.888263891915935
230,37.32025816469549
231,23.89
487,5614.997549821969
513,88.28612499720077
552,5703.28367481917
553,232.26237600000003
554,0.08217097790181598
569,0.0
597,0.0
486,5.0
10,14589065.19014557
22,11736000.000000038
46,7200000.00000002
83,4536000.000000018
386,2852873.442128655
398,2535043.392138732
423,0.0
515,317830.0499899228
571,0.0
599,1455620.4640553417
623,0.0
713,191.7480168790039
739,0.0015273744383291558
763,0.0015273744383291558
912,1455620.4640553417
2,1, 7,21, 0,18, 0.00,60.00,SummerDesignDay
568,0.0
596,0.0
2,1, 7,21, 0,19, 0.00,60.00,SummerDesignDay
7,27.072
8,13.835942872881642
379,0.42497547445815406
380,8.765823463330606
381,0.0
382,1.0
383,0.0
229,23.88853911149614
230,37.27604165803863
231,23.89
487,4724.807750479689
513,1314.1202495205787
552,0.0
553,214.220736
554,0.07898430264641764
569,0.0
597,0.0
486,1.0
10,19002068.038429735
22,11736000.000000038
46,7200000.00000002
83,4536000.000000018
386,7265876.290412815
398,2535043.392138732
423,0.0
515,4730832.898274084
571,0.0
599,1473267.3420157026
623,0.0
713,191.7480168790039
739,0.0015273744383291558
763,0.0015273744383291558
912,1473267.3420157026
2,1, 7,21, 0,19, 0.00,60.00,SummerDesignDay
568,0.0
596,0.0
2,1, 7,21, 0,20, 0.00,60.00,SummerDesignDay
7,25.4
8,13.2650418780975
379,0.2997827384396877
380,6.867474982376976
381,0.0
382,0.0
383,0.0
229,23.888851446114566
230,37.23488424959757
231,23.89
487,3235.1436213027975
513,864.8932362196512
552,0.0
553,200.9902
554,0.07599444037221855
569,0.0
597,0.0
486,1.0
10,21428184.928558809
22,11736000.000000038
46,7200000.00000002
83,4536000.000000018
386,5648659.042529477
398,2535043.392138732
423,4043334.138012415
515,3113615.650390744
571,0.0
599,370157.24671649085
623,0.0
713,191.7480168790039
739,0.0007430470240520218
763,0.0007430470240520218
912,370157.24671649085
2,1, 7,21, 0,20, 0.00,60.00,SummerDesignDay
568,0.0
596,0.0
2,1, 7,21, 0,21, 0.00,60.00,SummerDesignDay
7,24.032
8,12.788484356442869
379,0.2546484425921962
380,6.346107500102406
381,1.0
382,0.0
383,0.0
229,23.888987818944526
230,37.19770837152544
231,23.89
487,2688.397709446925
513,695.4279017556088
552,0.0
553,190.16521600000002
554,0.07316560690081885
569,0.0
597,0.0
486,1.0
10,20818109.724488256
22,11736000.000000038
46,7200000.00000002
83,4536000.000000018
386,5038583.838458924
398,2535043.392138732
423,4043334.138012415
515,2503540.4463201917
571,0.0
599,0.0
623,0.0
713,191.7480168790039
739,0.0011145705360780328
763,0.0011145705360780328
912,0.0
2,1, 7,21, 0,21, 0.00,60.00,SummerDesignDay
568,0.0
596,0.0
2,1, 7,21, 0,22, 0.00,60.00,SummerDesignDay
7,22.664
8,12.303137545607484
379,0.23091549377523774
380,6.106355351327551
381,1.0
382,0.0
383,0.0
229,23.88911308977372
230,37.16364814420271
231,23.89
487,2269.5680640761768
513,585.0419636631689
552,0.0
553,179.34023200000002
554,0.07049780223221852
569,0.0
597,0.0
486,1.0
10,20420720.34735547
22,11736000.000000038
46,7200000.00000002
83,4536000.000000018
386,4641194.46132614
398,2535043.392138732
423,4043334.138012415
515,2106151.069187408
571,0.0
599,1162275.65539528
623,0.0
713,191.7480168790039
739,0.0003715235120260109
763,0.0003715235120260109
912,1162275.65539528
2,1, 7,21, 0,22, 0.00,60.00,SummerDesignDay
568,0.0
596,0.0
2,1, 7,21, 0,23, 0.00,60.00,SummerDesignDay
7,21.6
8,11.91941362764802
379,0.2134981184299213
380,5.945440869540363
381,1.0
382,0.0
383,0.0
229,25.710915140985528
230,33.324342338102848
231,23.89
487,0.0
513,2028.9490955384086
552,-7056.055879573025
553,170.92080000000005
554,0.13242660669852505
569,0.0
597,0.0
486,4.0
10,25618594.274089457
22,11736000.000000038
46,7200000.00000002
83,4536000.000000018
386,9839260.136077004
398,2535043.392138732
423,4043334.138012415
515,7304216.743938272
571,0.0
599,963106.474540497
623,0.0
713,0.0
739,0.0
763,0.0
912,963106.474540497
2,1, 7,21, 0,23, 0.00,60.00,SummerDesignDay
568,0.0
596,0.0
2,1, 7,21, 0,24, 0.00,60.00,SummerDesignDay
7,20.536
8,11.53009523495306
379,0.5276335458044017
380,10.823691117790674
381,0.0
382,1.0
383,0.0
229,25.873562836102186
230,33.23615802743565
231,23.89
487,0.0
513,1984.3627883072764
552,-6947.886141104504
553,162.501368
554,0.24867749427884384
569,0.0
597,0.0
486,4.0
10,25458083.56805738
22,11736000.000000038
46,7200000.00000002
83,4536000.000000018
386,9678749.430044927
398,2535043.392138732
423,4043334.138012415
515,7143706.037906195
571,0.0
599,0.0
623,0.0
713,0.0
739,0.0
763,0.0
912,0.0
2,1, 7,21, 0,24, 0.00,60.00,SummerDesignDay
568,0.0
596,0.0
1,DENVER CENTENNIAL  GOLDEN   N ANN CLG .4% CONDNS WB=>MDB 1 HVAC Sizing Pass 1,  39.74,-105.18,  -7.00,1829.00
2,1, 7,21, 0, 1, 0.00,60.00,SummerDesignDay
7,13.924000000000002
8,13.923995971679688
379,0.2703450061932266
380,6.517686733631251
381,1.0
382,1.0
383,1.0
229,23.848038741123398
230,57.545038749002788
231,23.89
487,0.0
513,1821.4646911337348
552,-8448.710684701566
553,110.18061200000001
554,0.12404115467642205
569,0.0
597,0.0
486,4.0
10,23557116.280220227
22,11736000.000000038
46,7200000.00000002
83,4536000.000000018
386,9092316.280220177
398,2535043.392138732
423,2728800.0000000118
515,6557272.888081445
571,0.0
599,0.0
623,0.0
713,0.0
739,0.0
763,0.0
912,0.0
2,1, 7,21, 0, 1, 0.00,60.00,SummerDesignDay
568,0.0
596,0.0
2,1, 7,21, 0, 2, 0.00,60.00,SummerDesignDay
7,13.316
8,13.315994262695313
379,0.23066090533366677
380,6.10391168096362
381,1.0
382,1.0
383,1.0
229,23.681131710480029
230,58.351093732979887
231,23.89
487,0.0
513,1759.3491253965167
552,-7594.067938776646
553,105.36950800000001
554,0.23544050111735805
569,0.0
597,102.73295669100937
486,4.0
10,23333500.243566239
22,11736000.000000038
46,7200000.00000002
83,4536000.000000018
386,8868700.243566193
398,2535043.392138732
423,2728800.0000000118
515,6333656.85142746
571,0.0
599,462298.3051095421
623,462298.3051095421
713,0.0
739,0.0
763,0.0
912,0.0
2,1, 7,21, 0, 2, 0.00,60.00,SummerDesignDay
568,0.0
596,102.73295669100937
2,1, 7,21, 0, 3, 0.00,60.00,SummerDesignDay
7,12.860000000000002
8,12.859992980957032
379,0.1930653526293794
380,5.772859925360962
381,1.0
382,1.0
383,1.0
229,23.479360781637415
230,58.93309894465332
231,23.89
487,0.0
513,1737.800851192659
552,-7492.718897692952
553,101.76118000000001
554,0.34538588974989217
569,0.0
597,84.83982391317932
486,4.0
10,23255926.45643235
22,11736000.000000038
46,7200000.00000002
83,4536000.000000018
386,8791126.456432304
398,2535043.392138732
423,2728800.0000000118
515,6256083.064293572
571,0.0
599,381779.2076093069
623,381779.2076093069
713,0.0
739,0.0
763,0.0
912,0.0
2,1, 7,21, 0, 3, 0.00,60.00,SummerDesignDay
568,0.0
596,84.83982391317932
2,1, 7,21, 0, 4, 0.00,60.00,SummerDesignDay
7,12.404000000000002
8,12.403996906740363
379,0.14728860357854096
380,5.449507540972704
381,1.0
382,1.0
383,1.0
229,23.271080200464867
230,59.276394653612118
231,23.89
487,0.0
513,1722.3263409587767
552,-7452.394727844899
553,98.15285200000001
554,0.4547851059302025
569,0.0
597,102.70450607285511
486,4.0
10,23200218.219590375
22,11736000.000000038
46,7200000.00000002
83,4536000.000000018
386,8735418.219590329
398,2535043.392138732
423,2728800.0000000118
515,6200374.827451596
571,0.0
599,462170.277327848
623,462170.277327848
713,0.0
739,0.0
763,0.0
912,0.0
2,1, 7,21, 0, 4, 0.00,60.00,SummerDesignDay
568,0.0
596,102.70450607285511
2,1, 7,21, 0, 5, 0.00,60.00,SummerDesignDay
7,12.100000000000002
8,12.09999510978781
379,0.0992405573891465
380,5.203962474136446
381,1.0
382,1.0
383,1.0
229,23.07191051629813
230,59.44413797652732
231,23.89
487,0.0
513,1710.771334148345
552,-7404.0457335908899
553,95.74730000000001
554,0.5635008829938688
569,0.0
597,106.09875559745484
486,4.0
10,23158620.195072824
22,11736000.000000038
46,7200000.00000002
83,4536000.000000018
386,8693820.195072774
398,2535043.392138732
423,2728800.0000000118
515,6158776.802934042
571,0.0
599,477444.40018854677
623,477444.40018854677
713,0.0
739,0.0
763,0.0
912,0.0
2,1, 7,21, 0, 5, 0.00,60.00,SummerDesignDay
568,0.0
596,106.09875559745484
2,1, 7,21, 0, 6, 0.00,60.00,SummerDesignDay
7,12.404000000000002
8,12.403996906740363
379,0.12845530872090037
380,5.341824956516305
381,1.0
382,1.0
383,1.0
229,23.31868366562871
230,58.22207848351967
231,23.89
487,0.0
513,1713.3890864510839
552,-7318.865536048041
553,98.15285200000001
554,0.6709137640540702
569,0.0
597,101.48476665737853
486,4.0
10,20439244.103362673
22,11736000.000000038
46,7200000.00000002
83,4536000.000000018
386,8703244.103362635
398,2535043.392138732
423,0.0
515,6168200.711223902
571,0.0
599,456681.44995820338
623,456681.44995820338
713,0.0
739,0.0
763,0.0
912,0.0
2,1, 7,21, 0, 6, 0.00,60.00,SummerDesignDay
568,0.0
596,101.48476665737853
2,1, 7,21, 0, 7, 0.00,60.00,SummerDesignDay
7,13.468000000000002
8,13.467993845842147
379,0.2533079100651951
380,6.331934663343418
381,1.0
382,1.0
383,1.0
229,24.159952689268495
230,55.850594932027068
231,23.89
487,0.0
513,1734.870544591789
552,-7169.125126538684
553,106.57228400000001
554,0.741016659182421
569,0.0
597,0.0
486,4.0
10,20516577.35266921
22,11736000.000000038
46,7200000.00000002
83,4536000.000000018
386,8780577.352669172
398,2535043.392138732
423,0.0
515,6245533.96053044
571,0.0
599,0.0
623,0.0
713,0.0
739,0.0
763,0.0
912,0.0
2,1, 7,21, 0, 7, 0.00,60.00,SummerDesignDay
568,0.0
596,0.0
2,1, 7,21, 0, 8, 0.00,60.00,SummerDesignDay
7,16.052
8,15.031058258506438
379,0.4893610401441336
380,10.003337876455476
381,1.0
382,1.0
383,1.0
229,24.12355105752136
230,55.873876134777507
231,23.89
487,2764.093859755263
513,710.5400365536124
552,0.0
553,127.019476
554,0.7740844139865696
569,0.0
597,0.0
486,1.0
10,16829179.271748656
22,11736000.000000038
46,7200000.00000002
83,4536000.000000018
386,5092987.5237317369
398,2535043.392138732
423,0.0
515,2557944.1315930045
571,0.0
599,0.0
623,0.0
713,191.7480168790039
739,0.0011145705360780328
763,0.0011145705360780328
912,0.0
2,1, 7,21, 0, 8, 0.00,60.00,SummerDesignDay
568,0.0
596,0.0
2,1, 7,21, 0, 9, 0.00,60.00,SummerDesignDay
7,18.94
8,15.948581578042399
379,0.57904355261559
380,12.025461841704513
381,1.0
382,1.0
383,1.0
229,23.987512303476369
230,55.498655201826597
231,23.89
487,3838.3022194487427
513,986.6832198152265
552,0.0
553,149.87222000000004
554,0.7718549655033676
569,0.0
597,0.0
486,1.0
10,17823294.731490464
22,11736000.000000038
46,7200000.00000002
83,4536000.000000018
386,6087102.983473548
398,2535043.392138732
423,0.0
515,3552059.5913348158
571,0.0
599,558721.3437414628
623,0.0
713,191.7480168790039
739,0.002270421462381178
763,0.002270421462381178
912,558721.3437414628
2,1, 7,21, 0, 9, 0.00,60.00,SummerDesignDay
568,0.0
596,0.0
2,1, 7,21, 0,10, 0.00,60.00,SummerDesignDay
7,21.524
8,16.742342038574895
379,0.6205505821862372
380,13.079390078191637
381,1.0
382,1.0
383,1.0
229,23.92573288976537
230,51.69302646679246
231,23.89
487,7008.655993349116
513,1801.815199846134
552,0.0
553,170.319412
554,0.7693213515037668
569,0.0
597,0.0
486,1.0
10,20757769.859601734
22,11736000.000000038
46,7200000.00000002
83,4536000.000000018
386,9021578.111584815
398,2535043.392138732
423,0.0
515,6486534.719446083
571,0.0
599,1473267.3420157026
623,0.0
713,191.7480168790039
739,0.0026419449744071886
763,0.0026419449744071886
912,1473267.3420157026
2,1, 7,21, 0,10, 0.00,60.00,SummerDesignDay
568,0.0
596,0.0
2,1, 7,21, 0,11, 0.00,60.00,SummerDesignDay
7,23.804000000000003
8,17.422491295150473
379,0.6226534066405119
380,13.13477399317955
381,0.0
382,1.0
383,0.0
229,23.89999953995984
230,46.701418965604009
231,23.89
487,8168.321991124886
513,2102.2662728357497
552,0.0
553,188.36105200000004
554,0.766519356166167
569,0.0
597,0.0
486,1.0
10,21839393.722364349
22,11736000.000000038
46,7200000.00000002
83,4536000.000000018
386,10103201.974347432
398,2535043.392138732
423,0.0
515,7568158.582208699
571,0.0
599,1473267.3420157026
623,0.0
713,191.7480168790039
739,0.0026419449744071886
763,0.0026419449744071886
912,1473267.3420157026
2,1, 7,21, 0,11, 0.00,60.00,SummerDesignDay
568,0.0
596,0.0
2,1, 7,21, 0,12, 0.00,60.00,SummerDesignDay
7,25.324
8,17.865836726668534
379,0.597128079822514
380,12.475464487625303
381,0.0
382,1.0
383,0.0
229,23.987403191843997
230,41.83340699636566
231,23.89
487,7880.742750040276
513,2096.5669198318876
552,0.0
553,200.38881200000004
554,0.7635384399365678
569,0.0
597,0.0
486,1.0
10,21818876.051550446
22,11736000.000000038
46,7200000.00000002
83,4536000.000000018
386,10082684.303533527
398,2535043.392138732
423,0.0
515,7547640.9113947949
571,0.0
599,27377.481454505658
623,0.0
713,191.7480168790039
739,0.0033849919984592104
763,0.0033849919984592104
912,27377.481454505658
2,1, 7,21, 0,12, 0.00,60.00,SummerDesignDay
568,0.0
596,0.0
2,1, 7,21, 0,13, 0.00,60.00,SummerDesignDay
7,26.54
8,18.214886456924984
379,0.5942521933675415
380,12.40295388026378
381,0.0
382,1.0
383,0.0
229,23.91867987681284
230,43.41442214003875
231,23.89
487,5884.185851574178
513,92.5186454650028
552,5976.704497039181
553,210.01102
554,0.6715069512092688
569,0.0
597,0.0
486,5.0
10,14604302.26382966
22,11736000.000000038
46,7200000.00000002
83,4536000.000000018
386,2868110.515812742
398,2535043.392138732
423,0.0
515,333067.1236740101
571,0.0
599,337854.5739337199
623,0.0
713,191.7480168790039
739,0.0041280390225112329
763,0.0041280390225112329
912,337854.5739337199
2,1, 7,21, 0,13, 0.00,60.00,SummerDesignDay
568,0.0
596,0.0
2,1, 7,21, 0,14, 0.00,60.00,SummerDesignDay
7,27.3
8,18.43056122933001
379,0.6142451442910306
380,12.914468650286367
381,0.0
382,1.0
383,0.0
229,23.89846009035016
230,45.45204759322303
231,23.89
487,6414.484826624683
513,100.85667966391012
552,6515.341506288592
553,216.0249
554,0.5713734199626043
569,0.0
597,0.0
486,5.0
10,14634319.186945726
22,11736000.000000038
46,7200000.00000002
83,4536000.000000018
386,2898127.4389288087
398,2535043.392138732
423,0.0
515,363084.0467900764
571,0.0
599,1473267.3420157026
623,0.0
713,191.7480168790039
739,0.0037565155104852226
763,0.0037565155104852226
912,1473267.3420157026