Program Version,EnergyPlus, Version 9.1.0-08d2e308bb, YMD=2019.12.26 07:35
1,5,Environment Title[],Latitude[deg],Longitude[deg],Time Zone[],Elevation[m]
2,8,Day of Simulation[],Month[],Day of Month[],DST Indicator[1=yes 0=no],Hour[],StartMinute[],EndMinute[],DayType
3,5,Cumulative Day of Simulation[],Month[],Day of Month[],DST Indicator[1=yes 0=no],DayType  ! When Daily Report Variables Requested
4,2,Cumulative Days of Simulation[],Month[]  ! When Monthly Report Variables Requested
5,1,Cumulative Days of Simulation[] ! When Run Period Report Variables Requested
6,1,Calendar Year of Simulation[] ! When Annual Report Variables Requested
7,9,Environment,Site Outdoor Air Drybulb Temperature [C] !Monthly [Value,Min,Day,Hour,Minute,Max,Day,Hour,Minute]
8,1,Environment,Site Outdoor Air Wetbulb Temperature [C] !TimeStep
545,7,BUILDING STORY 1 THERMALZONE,Zone Air Relative Humidity [%] !Daily [Value,Min,Hour,Minute,Max,Hour,Minute]
915,1,Heating:Electricity [J] !Hourly
941,1,Heating:Gas [J] !Hourly
889,1,Cooling:Electricity [J] !Hourly
48,1,InteriorLights:Electricity [J] !Hourly
761,1,ExteriorLights:Electricity [J] !Hourly
86,1,InteriorEquipment:Electricity [J] !Hourly
160,1,InteriorEquipment:Gas [J] !Hourly
715,1,Fans:Electricity [J] !Hourly
1008,1,Pumps:Electricity [J] !Hourly
863,1,HeatRecovery:Electricity [J] !Hourly
258,1,WaterSystems:Electricity [J] !Hourly
408,1,WaterSystems:Gas [J] !Hourly
309,1,WaterSystems:Water [m3] !Hourly
12,1,Electricity:Facility [J] !Hourly
124,1,Gas:Facility [J] !Hourly
285,1,Water:Facility [m3] !Hourly
11,1,Electricity:Facility [J] !TimeStep
123,1,Gas:Facility [J] !TimeStep
End of Data Dictionary
1,RUN PERIOD 1,  42.93, -78.73,  -5.00, 215.00
2,1, 1, 1, 0, 1, 0.00,60.00,Monday
8,-1.1802458087361237
11,133470366.72084257
123,406180932.5946411
2,1, 1, 1, 0, 1, 0.00,60.00,Monday
12,133470366.72084257
48,22332951.10826934
86,35224072.69860412
124,406180932.5946411
160,39631247.733802799
258,23259125.511811325
285,0.40833481098217896
309,0.40833481098217896
408,366549684.8608383
715,0.0
761,52654217.4
863,0.0
889,0.0
915,0.0
941,0.0
1008,0.0021577741057663857
2,1, 1, 1, 0, 2, 0.00,60.00,Monday
8,-1.1802458087361237
11,98842412.19054133
123,29334473.641718005
2,1, 1, 1, 0, 2, 0.00,60.00,Monday
12,98842412.19054133
48,22332951.10826934
86,23482715.132402749
124,29334473.641718005
160,26420831.8225352
258,372528.54986923726
285,0.0
309,0.0
408,2913641.819182806
715,0.0
761,52654217.4
863,0.0
889,0.0
915,0.0
941,0.0
1008,0.0
2,1, 1, 1, 0, 3, 0.00,60.00,Monday
8,-1.87387394903547
11,110583702.13951618
123,39631247.733802799
2,1, 1, 1, 0, 3, 0.00,60.00,Monday
12,110583702.13951618
48,22332951.10826934
86,35224072.69860412
124,39631247.733802799
160,39631247.733802799
258,372460.9326427169
285,0.0
309,0.0
408,0.0
715,0.0
761,52654217.4
863,0.0
889,0.0
915,0.0
941,0.0
1008,0.0
2,1, 1, 1, 0, 4, 0.00,60.00,Monday
8,-1.5103272887722317
11,98655999.96843812
123,26420831.8225352
2,1, 1, 1, 0, 4, 0.00,60.00,Monday
12,98655999.96843812
48,22332951.10826934
86,23482715.132402749
124,26420831.8225352
160,26420831.8225352
258,186116.32776602769
285,0.0
309,0.0
408,0.0
715,0.0
761,52654217.4
863,0.0
889,0.0
915,0.0
941,0.0
1008,0.0
2,1, 1, 1, 0, 5, 0.00,60.00,Monday
8,-1.665952381653312
11,257092729.65103085
123,727100167.9710542
2,1, 1, 1, 0, 5, 0.00,60.00,Monday
12,257092729.65103085
48,22332951.10826934
86,58706787.83100687
124,727100167.9710542
160,66052079.556338008
258,372535.4303721095
285,0.0
309,0.0
408,0.0
715,91682824.39247705
761,52654217.4
863,31343413.488905454
889,0.0
915,0.0
941,661048088.4147163
1008,0.0
2,1, 1, 1, 0, 6, 0.00,60.00,Monday
8,-1.3944780310032846
11,223700360.73477874
123,158524990.93521119
2,1, 1, 1, 0, 6, 0.00,60.00,Monday
12,223700360.73477874
48,29777268.144359128
86,140896290.7944165
124,158524990.93521119
160,158524990.93521119
258,372584.3960031632
285,0.0
309,0.0
408,0.0
715,0.0
761,52654217.4
863,0.0
889,0.0
915,0.0
941,0.0
1008,0.0
2,1, 1, 1, 0, 7, 0.00,60.00,Monday
8,-1.1805889590406258
11,269520938.29095366
123,531714094.51271036
2,1, 1, 1, 0, 7, 0.00,60.00,Monday
12,269520938.29095366
48,59554536.28871825
86,152637648.36061786
124,531714094.51271036
160,171735406.8464788
258,372525.695603078
285,0.30625110823663417
309,0.30625110823663417
408,359978687.6662315
715,0.0
761,56956227.94392012
863,0.0
889,0.0
915,0.0
941,0.0
1008,0.002094304434218156
2,1, 1, 1, 0, 8, 0.00,60.00,Monday
8,-1.3944780310032846
11,484365430.84033766
123,956583557.4403813
2,1, 1, 1, 0, 8, 0.00,60.00,Monday
12,484365430.84033766
48,59554536.28871825
86,176120363.4930206
124,956583557.4403813
160,198156238.66901399
258,68708065.23063065
285,1.2250044329465367
309,1.2250044329465367
408,446057148.7386368
715,91682824.39247707
761,56956227.94392012
863,31343413.48890545
889,0.0
915,0.0
941,312370170.0327306
1008,0.0026655314781522116
2,1, 1, 1, 0, 9, 0.00,60.00,Monday
8,-1.665952381653312
11,489384004.7890521
123,1040352658.1078949
2,1, 1, 1, 0, 9, 0.00,60.00,Monday
12,489384004.7890521
48,89331804.43307737
86,211344436.1916247
124,1040352658.1078949
160,237787486.40281678
258,65681526.280365508
285,1.1229207302009923
309,1.1229207302009923
408,446057148.7386368
715,91682824.39247705
761,0.0
863,31343413.488905454
889,0.0
915,0.0
941,356508022.96644148
1008,0.002602061806603984
2,1, 1, 1, 0,10, 0.00,60.00,Monday
8,-1.1802458087361237
11,510716523.4877442
123,979730670.705564
2,1, 1, 1, 0,10, 0.00,60.00,Monday
12,510716523.4877442
48,89331804.43307737
86,246568508.89022885
124,979730670.705564
160,277418734.13661959
258,51789972.28058039
285,0.9187533247099027
309,0.9187533247099027
408,432176872.91700348
715,91682824.39247705
761,0.0
863,31343413.488905454
889,0.0
915,0.0
941,270135063.651941
1008,0.0024751224635075274
2,1, 1, 1, 0,11, 0.00,60.00,Monday
8,-0.9849379844004382
11,608477862.1816099
123,1004120646.7452282
2,1, 1, 1, 0,11, 0.00,60.00,Monday
12,608477862.1816099
48,133997706.64961607
86,305275296.7212357
124,1004120646.7452282
160,343470813.6929576
258,46178620.92696401
285,0.8166696219643579
309,0.8166696219643579
408,403348129.06293126
715,91682824.39247705
761,0.0
863,31343413.488905454
889,0.0
915,0.0
941,257301703.98933939
1008,0.0024116527919592989
2,1, 1, 1, 0,12, 0.00,60.00,Monday
8,-0.818433687998716
11,649367014.4720596
123,929754985.5127901
2,1, 1, 1, 0,12, 0.00,60.00,Monday
12,649367014.4720596
48,133997706.64961607
86,340499369.4198398
124,929754985.5127901
160,383102061.4267604
258,51843700.518746089
285,0.9187533247099027
309,0.9187533247099027
408,432173782.3813175
715,91682824.39247705
761,0.0
863,31343413.488905454
889,0.0
915,0.0
941,114479141.70471226
1008,0.0024751224635075274
2,1, 1, 1, 0,13, 0.00,60.00,Monday
8,-0.598194072481827
11,620125275.9284309
123,760023332.3437097
2,1, 1, 1, 0,13, 0.00,60.00,Monday
12,620125275.9284309
48,133997706.64961607
86,317016654.2874371
124,760023332.3437097
160,356681229.6042252
258,46084677.10758364
285,0.8166696219643579
309,0.8166696219643579
408,403342102.7394844
715,91682824.39247705
761,0.0
863,31343413.488905454
889,0.0
915,0.0
941,0.0
1008,0.0024116527919592989
2,1, 1, 1, 0,14, 0.00,60.00,Monday
8,-0.2717280594017997
11,590993185.2303332
123,763109349.1967856
2,1, 1, 1, 0,14, 0.00,60.00,Monday
12,590993185.2303332
48,133997706.64961607
86,293533939.1550343
124,763109349.1967856
160,330260397.78169
258,40435301.54195207
285,0.7145859192188131
309,0.7145859192188131
408,403050416.52997127
715,91682824.39247705
761,0.0
863,31343413.488905454
889,0.0
915,0.0
941,29798534.885124286
1008,0.0023481831204110708
2,1, 1, 1, 0,15, 0.00,60.00,Monday
8,-0.04571975547003023
11,561823094.1719393
123,862495292.2028525
2,1, 1, 1, 0,15, 0.00,60.00,Monday
12,561823094.1719393
48,133997706.64961607
86,270051224.02263167
124,862495292.2028525
160,303839565.9591548
258,34747925.61602434
285,0.6125022164732684
309,0.6125022164732684
408,400029248.3296133
715,91682824.39247705
761,0.0
863,31343413.488905454
889,0.0
915,0.0
941,158626477.9140845
1008,0.002284713448862842
2,1, 1, 1, 0,16, 0.00,60.00,Monday
8,-0.04535544602759805
11,561812816.5299641
123,935772792.9360483
2,1, 1, 1, 0,16, 0.00,60.00,Monday
12,561812816.5299641
48,133997706.64961607
86,270051224.02263167
124,935772792.9360483
160,303839565.9591548
258,34737647.97404915
285,0.6125022164732684
309,0.6125022164732684
408,385951890.06603619
715,91682824.39247705
761,0.0
863,31343413.488905454
889,0.0
915,0.0
941,245981336.91085739
1008,0.002284713448862842
2,1, 1, 1, 0,17, 0.00,60.00,Monday
8,-0.04535544602759805
11,597051798.2739035
123,956179125.1929078
2,1, 1, 1, 0,17, 0.00,60.00,Monday
12,597051798.2739035
48,133997706.64961607
86,305275296.7212357
124,956179125.1929078
160,343470813.6929576
258,34752557.019384469
285,0.6125022164732684
309,0.6125022164732684
408,397544056.70252308
715,91682824.39247705
761,0.0
863,31343413.488905454
889,0.0
915,0.0
941,215164254.79742716
1008,0.002284713448862842
2,1, 1, 1, 0,18, 0.00,60.00,Monday
8,-0.4337098548147795
11,665590597.9380968
123,898297781.8504573
2,1, 1, 1, 0,18, 0.00,60.00,Monday
12,665590597.9380968
48,133997706.64961607
86,305275296.7212357
124,898297781.8504573
160,343470813.6929576
258,46335128.73953087
285,0.8166696219643579
309,0.8166696219643579
408,406575642.65118268
715,91682824.39247705
761,56956227.94392012
863,31343413.488905454
889,0.0
915,0.0
941,148251325.506317
1008,0.0024116527919592989
2,1, 1, 1, 0,19, 0.00,60.00,Monday
8,-1.0213911744465183
11,660213285.2837762
123,843853730.7109236
2,1, 1, 1, 0,19, 0.00,60.00,Monday
12,660213285.2837762
48,133997706.64961607
86,281792581.588833
124,843853730.7109236
160,317049981.87042239
258,64440531.217422548
285,1.1229207302009923
309,1.1229207302009923
408,446057148.7386368
715,91682824.39247705
761,56956227.94392012
863,31343413.488905454
889,0.0
915,0.0
941,80746600.10186444
1008,0.002602061806603984
2,1, 1, 1, 0,20, 0.00,60.00,Monday
8,-1.1809288569695527
11,641122058.0424428
123,828960099.9347837
2,1, 1, 1, 0,20, 0.00,60.00,Monday
12,641122058.0424428
48,133997706.64961607
86,258309866.4564302
124,828960099.9347837
160,290629150.0478872
258,68832019.10842848
285,1.2250044329465369
309,1.2250044329465369
408,446057148.7386368
715,91682824.39247705
761,56956227.94392012
863,31343413.488905454
889,0.0
915,0.0
941,92273801.14825966
1008,0.002665531478152212
2,1, 1, 1, 0,21, 0.00,60.00,Monday
8,-1.5108130242800387
11,606547223.2850958
123,833925394.5159595
2,1, 1, 1, 0,21, 0.00,60.00,Monday
12,606547223.2850958
48,133997706.64961607
86,234827151.32402749
124,833925394.5159595
160,264208318.22535203
258,57739899.48361111
285,1.0208370274554473
309,1.0208370274554473
408,446057148.7386368
715,91682824.39247705
761,56956227.94392012
863,31343413.488905454
889,0.0
915,0.0
941,123659927.5519707
1008,0.0025385921350557559
2,1, 1, 1, 0,22, 0.00,60.00,Monday
8,-1.6662902470607773
11,588004773.2338293
123,936584204.3755906
2,1, 1, 1, 0,22, 0.00,60.00,Monday
12,588004773.2338293
48,133997706.64961607
86,211344436.1916247
124,936584204.3755906
160,237787486.40281678
258,62680164.56468377
285,1.1229207302009923
309,1.1229207302009923
408,446057148.7386368
715,91682824.39247705
761,56956227.94392012
863,31343413.488905454
889,0.0
915,0.0
941,252739569.23413713
1008,0.002602061806603984
2,1, 1, 1, 0,23, 0.00,60.00,Monday
8,-1.874803504688023
11,411573810.3987598
123,964604655.9047296
2,1, 1, 1, 0,23, 0.00,60.00,Monday
12,411573810.3987598
48,74443170.36089781
86,105672218.09581235
124,964604655.9047296
160,118893743.20140839
258,51475956.114271897
285,0.9187533247099027
309,0.9187533247099027
408,418302707.70245829
715,91682824.39247705
761,56956227.94392012
863,31343413.488905454
889,0.0
915,0.0
941,427408205.00086298
1008,0.0024751224635075274
2,1, 1, 1, 0,24, 0.00,60.00,Monday
8,-1.665952381653312
11,288940522.12094238
123,976476440.9852353
2,1, 1, 1, 0,24, 0.00,60.00,Monday
12,288940522.12094238
48,44665902.21653868
86,35224072.69860412
124,976476440.9852353
160,39631247.733802799
258,29068081.37827573
285,0.5104185137277236
309,0.5104185137277236
408,384203012.9926766
715,91682824.39247705
761,56956227.94392012
863,31343413.488905454
889,0.0
915,0.0
941,552642180.2587559
1008,0.002221243777314614
3,1, 1, 1, 0,Monday
545,37.7594831975767,26.23540016947835, 5,60,50.5319897171453, 7,59
2,2, 1, 2, 0, 1, 0.00,60.00,Tuesday
8,-2.450886200756528
11,133453597.25304933
123,406252824.72677817
2,2, 1, 2, 0, 1, 0.00,60.00,Tuesday
12,133453597.25304933
48,22332951.10826934
86,35224072.69860412
124,406252824.72677817
160,39631247.733802799
258,23242356.044018113
285,0.40833481098217896
309,0.40833481098217896
408,366621576.99297538
715,0.0
761,52654217.4
863,0.0
889,0.0
915,0.0
941,0.0
1008,0.0021577688069917215
2,2, 1, 2, 0, 2, 0.00,60.00,Tuesday
8,-2.248902511226617
11,98842370.54725862
123,37965012.02696764
2,2, 1, 2, 0, 2, 0.00,60.00,Tuesday
12,98842370.54725862
48,22332951.10826934
86,23482715.132402749
124,37965012.02696764
160,26420831.8225352
258,372486.90658653437
285,0.0
309,0.0
408,11544180.204432439
715,0.0
761,52654217.4
863,0.0
889,0.0
915,0.0
941,0.0
1008,0.0
2,2, 1, 2, 0, 3, 0.00,60.00,Tuesday
8,-2.248902511226617
11,110583800.61555195
123,39631247.733802799
2,2, 1, 2, 0, 3, 0.00,60.00,Tuesday
12,110583800.61555195
48,22332951.10826934
86,35224072.69860412
124,39631247.733802799
160,39631247.733802799
258,372559.40867848627
285,0.0
309,0.0
408,0.0
715,0.0
761,52654217.4
863,0.0
889,0.0
915,0.0
941,0.0
1008,0.0
2,2, 1, 2, 0, 4, 0.00,60.00,Tuesday
8,-1.665952381653312
11,98842199.41280702
123,26420831.8225352
2,2, 1, 2, 0, 4, 0.00,60.00,Tuesday
12,98842199.41280702
48,22332951.10826934
86,23482715.132402749
124,26420831.8225352
160,26420831.8225352
258,372315.77213493079
285,0.0
309,0.0
408,0.0
715,0.0
761,52654217.4
863,0.0
889,0.0
915,0.0
941,0.0
1008,0.0
2,2, 1, 2, 0, 5, 0.00,60.00,Tuesday
8,-2.8216230582487005
11,256906415.11684177
123,726633971.672261
2,2, 1, 2, 0, 5, 0.00,60.00,Tuesday
12,256906415.11684177
48,22332951.10826934
86,58706787.83100687
124,726633971.672261
160,66052079.556338008
258,186220.8961830472
285,0.0
309,0.0
408,0.0
715,91682824.39247705
761,52654217.4
863,31343413.488905454
889,0.0
915,0.0
941,660581892.115923
1008,0.0
2,2, 1, 2, 0, 6, 0.00,60.00,Tuesday
8,-1.665952381653312
11,223700307.61986885
123,158524990.93521119
2,2, 1, 2, 0, 6, 0.00,60.00,Tuesday
12,223700307.61986885
48,29777268.144359128
86,140896290.7944165
124,158524990.93521119
160,158524990.93521119
258,372531.2810932711
285,0.0
309,0.0
408,0.0
715,0.0
761,52654217.4
863,0.0
889,0.0
915,0.0
941,0.0
1008,0.0
2,2, 1, 2, 0, 7, 0.00,60.00,Tuesday
8,-1.665952381653312
11,269520969.8340395
123,531784649.46586039
2,2, 1, 2, 0, 7, 0.00,60.00,Tuesday
12,269520969.8340395
48,59554536.28871825
86,152637648.36061786
124,531784649.46586039
160,171735406.8464788
258,372557.2386889601
285,0.30625110823663417
309,0.30625110823663417
408,360049242.61938157
715,0.0
761,56956227.94392012
863,0.0
889,0.0
915,0.0
941,0.0
1008,0.0020942986697684289
2,2, 1, 2, 0, 8, 0.00,60.00,Tuesday
8,-1.66561355779768
11,484412414.7521138
123,996886754.7329967
2,2, 1, 2, 0, 8, 0.00,60.00,Tuesday
12,484412414.7521138
48,59554536.28871825
86,176120363.4930206
124,996886754.7329967
160,198156238.66901399
258,68755049.14240682
285,1.2250044329465367
309,1.2250044329465367
408,446057148.7386368
715,91682824.39247707
761,56956227.94392012
863,31343413.48890545
889,0.0
915,0.0
941,352673367.325346
1008,0.0026655241413570936
2,2, 1, 2, 0, 9, 0.00,60.00,Tuesday
8,-1.66561355779768
11,489589333.04065456
123,1045388860.6537044
2,2, 1, 2, 0, 9, 0.00,60.00,Tuesday
12,489589333.04065456
48,89331804.43307737
86,211344436.1916247
124,1045388860.6537044
160,237787486.40281678
258,65886854.531967919
285,1.1229207302009923
309,1.1229207302009923
408,446057148.7386368
715,91682824.39247705
761,0.0
863,31343413.488905454
889,0.0
915,0.0
941,361544225.51225098
1008,0.0026020546445072176
2,2, 1, 2, 0,10, 0.00,60.00,Tuesday
8,-1.1802458087361237
11,510737893.57039698
123,993748722.3849791
2,2, 1, 2, 0,10, 0.00,60.00,Tuesday
12,510737893.57039698
48,89331804.43307737
86,246568508.89022885
124,993748722.3849791
160,277418734.13661959
258,51811342.36323317
285,0.9187533247099027
309,0.9187533247099027
408,432195072.2483459
715,91682824.39247705
761,0.0
863,31343413.488905454
889,0.0
915,0.0
941,284134916.0000137
1008,0.0024751156508074796
2,2, 1, 2, 0,11, 0.00,60.00,Tuesday
8,-1.1799047350000767
11,608412510.6040677
123,1029905193.1556366
2,2, 1, 2, 0,11, 0.00,60.00,Tuesday
12,608412510.6040677
48,133997706.64961607
86,305275296.7212357
124,1029905193.1556366
160,343470813.6929576
258,46113269.349421788
285,0.8166696219643579
309,0.8166696219643579
408,403403230.08983597
715,91682824.39247705
761,0.0
863,31343413.488905454
889,0.0
915,0.0
941,283031149.3728431
1008,0.0024116461539576115
2,2, 1, 2, 0,12, 0.00,60.00,Tuesday
8,-0.817959937909318
11,649654301.6369639
123,926873218.9192513
2,2, 1, 2, 0,12, 0.00,60.00,Tuesday
12,649654301.6369639
48,133997706.64961607
86,340499369.4198398
124,926873218.9192513
160,383102061.4267604
258,52130987.68365036
285,0.9187533247099027
309,0.9187533247099027
408,432190680.8909452
715,91682824.39247705
761,0.0
863,31343413.488905454
889,0.0
915,0.0
941,111580476.60154574
1008,0.0024751156508074796
2,2, 1, 2, 0,13, 0.00,60.00,Tuesday
8,-0.9843616670581066
11,620122166.1814902
123,774296597.9207783
2,2, 1, 2, 0,13, 0.00,60.00,Tuesday
12,620122166.1814902
48,133997706.64961607
86,317016654.2874371
124,774296597.9207783
160,356681229.6042252
258,46081567.36064295
285,0.8166696219643579
309,0.8166696219643579
408,417615368.31655308
715,91682824.39247705
761,0.0
863,31343413.488905454
889,0.0
915,0.0
941,0.0
1008,0.0024116461539576115
2,2, 1, 2, 0,14, 0.00,60.00,Tuesday
8,-0.817959937909318
11,591041855.8608267
123,788945744.2290009
2,2, 1, 2, 0,14, 0.00,60.00,Tuesday
12,591041855.8608267
48,133997706.64961607
86,293533939.1550343
124,788945744.2290009
160,330260397.78169
258,40483972.17244558
285,0.7145859192188131
309,0.7145859192188131
408,402257818.06004837
715,91682824.39247705
761,0.0
863,31343413.488905454
889,0.0
915,0.0
941,56427528.38726255
1008,0.0023481766571077429
2,2, 1, 2, 0,15, 0.00,60.00,Tuesday
8,-0.5975033634303576
11,561818975.4598098
123,873848296.8629154
2,2, 1, 2, 0,15, 0.00,60.00,Tuesday
12,561818975.4598098
48,133997706.64961607
86,270051224.02263167
124,873848296.8629154
160,303839565.9591548
258,34743806.90389482
285,0.6125022164732684
309,0.6125022164732684
408,386041335.25522747
715,91682824.39247705
761,0.0
863,31343413.488905454
889,0.0
915,0.0
941,183967395.6485332
1008,0.002284707160257874
2,2, 1, 2, 0,16, 0.00,60.00,Tuesday
8,-0.5971565962370674
11,561677505.4728323
123,962349074.4043968
2,2, 1, 2, 0,16, 0.00,60.00,Tuesday
12,561677505.4728323
48,133997706.64961607
86,270051224.02263167
124,962349074.4043968
160,303839565.9591548
258,34602336.91691743
285,0.6125022164732684
309,0.6125022164732684
408,388470683.811131
715,91682824.39247705
761,0.0
863,31343413.488905454
889,0.0
915,0.0
941,270038824.634111
1008,0.002284707160257874
2,2, 1, 2, 0,17, 0.00,60.00,Tuesday
8,-0.5971565962370674
11,597083882.8862473
123,982388626.4083715
2,2, 1, 2, 0,17, 0.00,60.00,Tuesday
12,597083882.8862473
48,133997706.64961607
86,305275296.7212357
124,982388626.4083715
160,343470813.6929576
258,34784641.63172828
285,0.6125022164732684
309,0.6125022164732684
408,398555847.8477188
715,91682824.39247705
761,0.0
863,31343413.488905454
889,0.0
915,0.0
941,240361964.86769504
1008,0.002284707160257874
2,2, 1, 2, 0,18, 0.00,60.00,Tuesday
8,-1.1795657539051999
11,665303025.5618812
123,933359379.5460695
2,2, 1, 2, 0,18, 0.00,60.00,Tuesday
12,665303025.5618812
48,133997706.64961607
86,305275296.7212357
124,933359379.5460695
160,343470813.6929576
258,46047556.3633153
285,0.8166696219643579
309,0.8166696219643579
408,417615782.8051225
715,91682824.39247705
761,56956227.94392012
863,31343413.488905454
889,0.0
915,0.0
941,172272783.04798953
1008,0.0024116461539576115
2,2, 1, 2, 0,19, 0.00,60.00,Tuesday
8,-1.020404023167408
11,658443374.5053879
123,838232623.3409768
2,2, 1, 2, 0,19, 0.00,60.00,Tuesday
12,658443374.5053879
48,133997706.64961607
86,281792581.588833
124,838232623.3409768
160,317049981.87042239
258,62670620.4390342
285,1.1229207302009923
309,1.1229207302009923
408,446057148.7386368
715,91682824.39247705
761,56956227.94392012
863,31343413.488905454
889,0.0
915,0.0
941,75125492.7319177
1008,0.0026020546445072176
2,2, 1, 2, 0,20, 0.00,60.00,Tuesday
8,-1.6649382965486524
11,641122058.0424428
123,846742752.0174185
2,2, 1, 2, 0,20, 0.00,60.00,Tuesday
12,641122058.0424428
48,133997706.64961607
86,258309866.4564302
124,846742752.0174185
160,290629150.0478872
258,68832019.10842848
285,1.2250044329465369
309,1.2250044329465369
408,446057148.7386368
715,91682824.39247705
761,56956227.94392012
863,31343413.488905454
889,0.0
915,0.0
941,110056453.23089446
1008,0.0026655241413570858
2,2, 1, 2, 0,21, 0.00,60.00,Tuesday
8,-2.0970481657497048
11,606551484.3984165
123,853253580.2470043
2,2, 1, 2, 0,21, 0.00,60.00,Tuesday
12,606551484.3984165
48,133997706.64961607
86,234827151.32402749
124,853253580.2470043
160,264208318.22535203
258,57744160.59693189
285,1.0208370274554473
309,1.0208370274554473
408,446057148.7386368
715,91682824.39247705
761,56956227.94392012
863,31343413.488905454
889,0.0
915,0.0
941,142988113.2830155
1008,0.0025385851476573486
2,2, 1, 2, 0,22, 0.00,60.00,Tuesday
8,-2.448595400822192
11,588223802.6560466
123,960197726.8876002
2,2, 1, 2, 0,22, 0.00,60.00,Tuesday
12,588223802.6560466
48,133997706.64961607
86,211344436.1916247
124,960197726.8876002
160,237787486.40281678
258,62899193.98690114
285,1.1229207302009923
309,1.1229207302009923
408,446057148.7386368
715,91682824.39247705
761,56956227.94392012
863,31343413.488905454
889,0.0
915,0.0
941,276353091.7461467
1008,0.0026020546445072176
2,2, 1, 2, 0,23, 0.00,60.00,Tuesday
8,-3.0766921149082706
11,411528889.60037258
123,996908818.2383599
2,2, 1, 2, 0,23, 0.00,60.00,Tuesday
12,411528889.60037258
48,74443170.36089781
86,105672218.09581235
124,996908818.2383599
160,118893743.20140839
258,51431035.31588471
285,0.9187533247099027
309,0.9187533247099027
408,419179927.63315656
715,91682824.39247705
761,56956227.94392012
863,31343413.488905454
889,0.0
915,0.0
941,458835147.40379497
1008,0.0024751156508074796
2,2, 1, 2, 0,24, 0.00,60.00,Tuesday
8,-3.0766921149082706
11,288760987.92014119
123,1009472788.9863651
2,2, 1, 2, 0,24, 0.00,60.00,Tuesday
12,288760987.92014119
48,44665902.21653868
86,35224072.69860412
124,1009472788.9863651
160,39631247.733802799
258,28888547.17747455
285,0.5104185137277236
309,0.5104185137277236
408,383346494.76872828
715,91682824.39247705
761,56956227.94392012
863,31343413.488905454
889,0.0
915,0.0
941,586495046.483834
1008,0.0022212376634080054
3,2, 1, 2, 0,Tuesday
545,37.20777298944923,21.501512860418904, 5,60,47.45191882138575, 7,60
2,3, 1, 3, 0, 1, 0.00,60.00,Wednesday
8,-3.8400849580777196
11,133539894.83097525
123,410226661.34305658
2,3, 1, 3, 0, 1, 0.00,60.00,Wednesday
12,133539894.83097525
48,22332951.10826934
86,35224072.69860412
124,410226661.34305658
160,39631247.733802799
258,23328653.62194402
285,0.40833481098217896
309,0.40833481098217896
408,370595413.60925379
715,0.0
761,52654217.4
863,0.0
889,0.0
915,0.0
941,0.0
1008,0.002157762963883141
2,3, 1, 3, 0, 2, 0.00,60.00,Wednesday
8,-3.839424890680984
11,98760188.70804087
123,26420831.8225352
2,3, 1, 3, 0, 2, 0.00,60.00,Wednesday
12,98760188.70804087
48,22332951.10826934
86,23482715.132402749
124,26420831.8225352
160,26420831.8225352
258,290305.0673687784
285,0.0
309,0.0
408,0.0
715,0.0
761,52654217.4
863,0.0
889,0.0
915,0.0
941,0.0
1008,0.0
2,3, 1, 3, 0, 3, 0.00,60.00,Wednesday
8,-4.1712791770681749
11,110583705.75156152
123,52868477.0800674
2,3, 1, 3, 0, 3, 0.00,60.00,Wednesday
12,110583705.75156152
48,22332951.10826934
86,35224072.69860412
124,52868477.0800674
160,39631247.733802799
258,372464.54468805858
285,0.0
309,0.0
408,13237229.346264609
715,0.0
761,52654217.4
863,0.0
889,0.0
915,0.0
941,0.0
1008,0.0
2,3, 1, 3, 0, 4, 0.00,60.00,Wednesday
8,-4.310274787688259
11,98842397.80111727
123,26420831.8225352
2,3, 1, 3, 0, 4, 0.00,60.00,Wednesday
12,98842397.80111727
48,22332951.10826934
86,23482715.132402749
124,26420831.8225352
160,26420831.8225352
258,372514.1604451847
285,0.0
309,0.0
408,0.0
715,0.0
761,52654217.4
863,0.0
889,0.0
915,0.0
941,0.0
1008,0.0
2,3, 1, 3, 0, 5, 0.00,60.00,Wednesday
8,-5.011897641093955
11,257092640.92094717
123,849075214.3881402
2,3, 1, 3, 0, 5, 0.00,60.00,Wednesday
12,257092640.92094717
48,22332951.10826934
86,58706787.83100687
124,849075214.3881402
160,66052079.556338008
258,372446.7002884451
285,0.0
309,0.0
408,0.0
715,91682824.39247705
761,52654217.4
863,31343413.488905454
889,0.0
915,0.0
941,783023134.8318023
1008,0.0
2,3, 1, 3, 0, 6, 0.00,60.00,Wednesday
8,-5.348283325588144
11,223700272.58741177
123,158524990.93521119
2,3, 1, 3, 0, 6, 0.00,60.00,Wednesday
12,223700272.58741177
48,29777268.144359128
86,140896290.7944165
124,158524990.93521119
160,158524990.93521119
258,372496.24863619756
285,0.0
309,0.0
408,0.0
715,0.0
761,52654217.4
863,0.0
889,0.0
915,0.0
941,0.0
1008,0.0
2,3, 1, 3, 0, 7, 0.00,60.00,Wednesday
8,-5.654568022820762
11,269334664.65866699
123,527884299.4174924
2,3, 1, 3, 0, 7, 0.00,60.00,Wednesday
12,269334664.65866699
48,59554536.28871825
86,152637648.36061786
124,527884299.4174924
160,171735406.8464788
258,186252.06331647657
285,0.30625110823663417
309,0.30625110823663417
408,356148892.57101359
715,0.0
761,56956227.94392012
863,0.0
889,0.0
915,0.0
941,0.0
1008,0.0020942930098036057
2,3, 1, 3, 0, 8, 0.00,60.00,Wednesday
8,-5.4788702207489179
11,484479865.6539849
123,1128457359.570365
2,3, 1, 3, 0, 8, 0.00,60.00,Wednesday
12,484479865.6539849
48,59554536.28871825
86,176120363.4930206
124,1128457359.570365
160,198156238.66901399
258,68822500.04427794
285,1.2250044329465367
309,1.2250044329465367
408,446057148.7386368
715,91682824.39247707
761,56956227.94392012
863,31343413.48890545
889,0.0
915,0.0
941,484243972.16271439
1008,0.002665516937623363
2,3, 1, 3, 0, 9, 0.00,60.00,Wednesday
8,-5.78833505928885
11,489991146.18148067
123,1174728800.220018
2,3, 1, 3, 0, 9, 0.00,60.00,Wednesday
12,489991146.18148067
48,89331804.43307737
86,211344436.1916247
124,1174728800.220018
160,237787486.40281678
258,66288667.672794047
285,1.1229207302009923
309,1.1229207302009923
408,446057148.7386368
715,91682824.39247705
761,0.0
863,31343413.488905454
889,0.0
915,0.0
941,490884165.0785645
1008,0.0026020476123034869
2,3, 1, 3, 0,10, 0.00,60.00,Wednesday
8,-6.360779300234708
11,510775663.6621961
123,1176938748.490283
2,3, 1, 3, 0,10, 0.00,60.00,Wednesday
12,510775663.6621961
48,89331804.43307737
86,246568508.89022885
124,1176938748.490283
160,277418734.13661959
258,51849112.45503233
285,0.9187533247099027
309,0.9187533247099027
408,432212837.3894168
715,91682824.39247705
761,0.0
863,31343413.488905454
889,0.0
915,0.0
941,467307176.9642466
1008,0.002475108961663749
2,3, 1, 3, 0,11, 0.00,60.00,Wednesday
8,-6.209417884049362
11,608369244.8997108
123,1200834644.8433684
2,3, 1, 3, 0,11, 0.00,60.00,Wednesday
12,608369244.8997108
48,133997706.64961607
86,305275296.7212357
124,1200834644.8433684
160,343470813.6929576
258,46070003.64506496
285,0.8166696219643579
309,0.8166696219643579
408,411867444.7094742
715,91682824.39247705
761,0.0
863,31343413.488905454
889,0.0
915,0.0
941,445496386.4409366
1008,0.00241163963634388
2,3, 1, 3, 0,12, 0.00,60.00,Wednesday
8,-6.0824279633693039
11,649697640.6047165
123,1100357000.6744014
2,3, 1, 3, 0,12, 0.00,60.00,Wednesday
12,649697640.6047165
48,133997706.64961607
86,340499369.4198398
124,1100357000.6744014
160,383102061.4267604
258,52174326.651403028
285,0.9187533247099027
309,0.9187533247099027
408,424018348.87283346
715,91682824.39247705
761,0.0
863,31343413.488905454
889,0.0
915,0.0
941,293236590.37480738
1008,0.002475108961663749
2,3, 1, 3, 0,13, 0.00,60.00,Wednesday
8,-6.550193446183367
11,620182875.3308374
123,964654434.8122556
2,3, 1, 3, 0,13, 0.00,60.00,Wednesday
12,620182875.3308374
48,133997706.64961607
86,317016654.2874371
124,964654434.8122556
160,356681229.6042252
258,46142276.50999014
285,0.8166696219643579
309,0.8166696219643579
408,417649423.0165513
715,91682824.39247705
761,0.0
863,31343413.488905454
889,0.0
915,0.0
941,190323782.19147904
1008,0.00241163963634388
2,3, 1, 3, 0,14, 0.00,60.00,Wednesday
8,-6.889542842120662
11,591017915.6389943
123,992789212.3724936
2,3, 1, 3, 0,14, 0.00,60.00,Wednesday
12,591017915.6389943
48,133997706.64961607
86,293533939.1550343
124,992789212.3724936
160,330260397.78169
258,40460031.95061321
285,0.7145859192188131
309,0.7145859192188131
408,402309454.3207406
715,91682824.39247705
761,0.0
863,31343413.488905454
889,0.0
915,0.0
941,260219360.270063
1008,0.0023481703110240115
2,3, 1, 3, 0,15, 0.00,60.00,Wednesday
8,-7.3508378156906419
11,561749519.3430346
123,1087912024.4624167
2,3, 1, 3, 0,15, 0.00,60.00,Wednesday
12,561749519.3430346
48,133997706.64961607
86,270051224.02263167
124,1087912024.4624167
160,303839565.9591548
258,34674350.78711978
285,0.6125022164732684
309,0.6125022164732684
408,386109902.26084646
715,91682824.39247705
761,0.0
863,31343413.488905454
889,0.0
915,0.0
941,397962556.2424153
1008,0.002284700985704142
2,3, 1, 3, 0,16, 0.00,60.00,Wednesday
8,-7.469274250048447
11,561729945.0510417
123,1195933399.709603
2,3, 1, 3, 0,16, 0.00,60.00,Wednesday
12,561729945.0510417
48,133997706.64961607
86,270051224.02263167
124,1195933399.709603
160,303839565.9591548
258,34654776.49512688
285,0.6125022164732684
309,0.6125022164732684
408,401074437.4272287
715,91682824.39247705
761,0.0
863,31343413.488905454
889,0.0
915,0.0
941,491019396.3232196
1008,0.002284700985704142
2,3, 1, 3, 0,17, 0.00,60.00,Wednesday
8,-7.904415557688695
11,597153469.9824271
123,1209243394.148303
2,3, 1, 3, 0,17, 0.00,60.00,Wednesday
12,597153469.9824271
48,133997706.64961607
86,305275296.7212357
124,1209243394.148303
160,343470813.6929576
258,34854228.72790817
285,0.6125022164732684
309,0.6125022164732684