Program Version,EnergyPlus, Version 9.1.0-08d2e308bb, YMD=2019.12.26 07:35
1,5,Environment Title[],Latitude[deg],Longitude[deg],Time Zone[],Elevation[m]
2,8,Day of Simulation[],Month[],Day of Month[],DST Indicator[1=yes 0=no],Hour[],StartMinute[],EndMinute[],DayType
3,5,Cumulative Day of Simulation[],Month[],Day of Month[],DST Indicator[1=yes 0=no],DayType  ! When Daily Report Variables Requested
4,2,Cumulative Days of Simulation[],Month[]  ! When Monthly Report Variables Requested
5,1,Cumulative Days of Simulation[] ! When Run Period Report Variables Requested
6,1,Calendar Year of Simulation[] ! When Annual Report Variables Requested
7,9,Environment,Site Outdoor Air Drybulb Temperature [C] !Monthly [Value,Min,Day,Hour,Minute,Max,Day,Hour,Minute]
8,1,Environment,Site Outdoor Air Wetbulb Temperature [C] !TimeStep
545,1,BUILDING STORY 1 THERMALZONE,Zone Air Temperature [C] !Hourly
546,7,BUILDING STORY 1 THERMALZONE,Zone Air Relative Humidity [%] !Daily [Value,Min,Hour,Minute,Max,Hour,Minute]
11,1,Electricity:Facility [J] !TimeStep
123,1,Gas:Facility [J] !TimeStep
End of Data Dictionary
1,BUFFALO NIAGARA INTL AP ANN CLG .4% CONDNS DB=>MWB,  42.93, -78.73,  -5.00, 215.00
2,1, 7,21, 0, 1, 0.00,60.00,SummerDesignDay
8,19.36840579326866
11,631837563.995941
123,681747117.3572586
2,1, 7,21, 0, 1, 0.00,60.00,SummerDesignDay
545,28.94095762243777
2,1, 7,21, 0, 2, 0.00,60.00,SummerDesignDay
8,19.25226217922265
11,604958468.0144415
123,394604970.64313146
2,1, 7,21, 0, 2, 0.00,60.00,SummerDesignDay
545,29.20784340500837
2,1, 7,21, 0, 3, 0.00,60.00,SummerDesignDay
8,19.164819553782637
11,604958508.6491401
123,383102061.4267604
2,1, 7,21, 0, 3, 0.00,60.00,SummerDesignDay
545,28.99889344441526
2,1, 7,21, 0, 4, 0.00,60.00,SummerDesignDay
8,19.0770792448193
11,604958548.9409884
123,383102061.4267604
2,1, 7,21, 0, 4, 0.00,60.00,SummerDesignDay
545,28.883436810172538
2,1, 7,21, 0, 5, 0.00,60.00,SummerDesignDay
8,19.018427637799467
11,604958588.8936712
123,383102061.4267604
2,1, 7,21, 0, 5, 0.00,60.00,SummerDesignDay
545,28.79605218397662
2,1, 7,21, 0, 6, 0.00,60.00,SummerDesignDay
8,19.0770792448193
11,676148722.0868206
123,383102061.4267604
2,1, 7,21, 0, 6, 0.00,60.00,SummerDesignDay
545,26.509293730755745
2,1, 7,21, 0, 7, 0.00,60.00,SummerDesignDay
8,19.281346189070228
11,812009714.1228907
123,684662973.3437603
2,1, 7,21, 0, 7, 0.00,60.00,SummerDesignDay
545,24.28537993812651
2,1, 7,21, 0, 8, 0.00,60.00,SummerDesignDay
8,19.770887505670989
11,918456647.2490305
123,761231395.4926289
2,1, 7,21, 0, 8, 0.00,60.00,SummerDesignDay
545,24.076357032748726
2,1, 7,21, 0, 9, 0.00,60.00,SummerDesignDay
8,20.30732185289352
11,946271998.4344902
123,759214891.1296108
2,1, 7,21, 0, 9, 0.00,60.00,SummerDesignDay
545,24.002100376123324
2,1, 7,21, 0,10, 0.00,60.00,SummerDesignDay
8,20.778037156782458
11,962501066.8100823
123,737407180.6626043
2,1, 7,21, 0,10, 0.00,60.00,SummerDesignDay
545,23.98080662348097
2,1, 7,21, 0,11, 0.00,60.00,SummerDesignDay
8,21.186337137460165
11,978476382.5988363
123,734631831.1324902
2,1, 7,21, 0,11, 0.00,60.00,SummerDesignDay
545,23.969496452098814
2,1, 7,21, 0,12, 0.00,60.00,SummerDesignDay
8,21.45495938709981
11,996547931.8595413
123,737433980.9992515
2,1, 7,21, 0,12, 0.00,60.00,SummerDesignDay
545,23.96357368616035
2,1, 7,21, 0,13, 0.00,60.00,SummerDesignDay
8,21.667839996742449
11,1004156427.0102469
123,734659901.020253
2,1, 7,21, 0,13, 0.00,60.00,SummerDesignDay
545,23.960266662234557
2,1, 7,21, 0,14, 0.00,60.00,SummerDesignDay
8,21.799990419629109
11,1003138596.4838456
123,713298815.4766694
2,1, 7,21, 0,14, 0.00,60.00,SummerDesignDay
545,24.128451559166565
2,1, 7,21, 0,15, 0.00,60.00,SummerDesignDay
8,21.799990419629109
11,997350819.4282373
123,709643175.1372242
2,1, 7,21, 0,15, 0.00,60.00,SummerDesignDay
545,24.246885277693719
2,1, 7,21, 0,16, 0.00,60.00,SummerDesignDay
8,21.641326796728476
11,992315338.9461012
123,709624198.231326
2,1, 7,21, 0,16, 0.00,60.00,SummerDesignDay
545,24.215465133382556
2,1, 7,21, 0,17, 0.00,60.00,SummerDesignDay
8,21.42822317147698
11,985091828.7869994
123,710241533.4770216
2,1, 7,21, 0,17, 0.00,60.00,SummerDesignDay
545,24.099098909291024
2,1, 7,21, 0,18, 0.00,60.00,SummerDesignDay
8,21.15931786227956
11,979785520.7526347
123,733994389.8795605
2,1, 7,21, 0,18, 0.00,60.00,SummerDesignDay
545,24.03462277657489
2,1, 7,21, 0,19, 0.00,60.00,SummerDesignDay
8,20.750583661392644
11,965761520.2722504
123,759221036.3907961
2,1, 7,21, 0,19, 0.00,60.00,SummerDesignDay
545,23.999773601500434
2,1, 7,21, 0,20, 0.00,60.00,SummerDesignDay
8,20.446661088459409
11,938150314.1810067
123,761216884.522353
2,1, 7,21, 0,20, 0.00,60.00,SummerDesignDay
545,23.981489218166833
2,1, 7,21, 0,21, 0.00,60.00,SummerDesignDay
8,20.19530361990708
11,962836756.9856232
123,757119141.2969923
2,1, 7,21, 0,21, 0.00,60.00,SummerDesignDay
545,23.9717662946633
2,1, 7,21, 0,22, 0.00,60.00,SummerDesignDay
8,19.941485234887624
11,951505561.0610305
123,759258844.5213502
2,1, 7,21, 0,22, 0.00,60.00,SummerDesignDay
545,23.96629545830039
2,1, 7,21, 0,23, 0.00,60.00,SummerDesignDay
8,19.7423381019073
11,926025754.4727036
123,737460898.3638717
2,1, 7,21, 0,23, 0.00,60.00,SummerDesignDay
545,23.963263817006355
2,1, 7,21, 0,24, 0.00,60.00,SummerDesignDay
8,19.54165603023991
11,889731108.8196727
123,701249749.3471229
2,1, 7,21, 0,24, 0.00,60.00,SummerDesignDay
545,23.961642650143557
3,1, 7,21, 0,SummerDesignDay
546,62.716909230405359,57.88868249665333, 1,20,67.1781690626297, 6,30
4,1, 7
7,25.312875000000003,21.0,21, 5,60,30.3,21,14,60
1,BUFFALO NIAGARA INTL AP ANN CLG .4% CONDNS WB=>MDB,  42.93, -78.73,  -5.00, 215.00
2,1, 7,21, 0, 1, 0.00,60.00,SummerDesignDay
8,19.615996954992807
11,631340253.1631448
123,681747117.3572586
2,1, 7,21, 0, 1, 0.00,60.00,SummerDesignDay
545,27.553207349608205
2,1, 7,21, 0, 2, 0.00,60.00,SummerDesignDay
8,19.243988037109376
11,604958468.0173512
123,394604970.64313146
2,1, 7,21, 0, 2, 0.00,60.00,SummerDesignDay
545,27.728555869680876
2,1, 7,21, 0, 3, 0.00,60.00,SummerDesignDay
8,18.96499632356402
11,604958508.6520252
123,383102061.4267604
2,1, 7,21, 0, 3, 0.00,60.00,SummerDesignDay
545,27.494602799926598
2,1, 7,21, 0, 4, 0.00,60.00,SummerDesignDay
8,18.685989379882814
11,604958548.9438492
123,383102061.4267604
2,1, 7,21, 0, 4, 0.00,60.00,SummerDesignDay
545,27.358456088136376
2,1, 7,21, 0, 5, 0.00,60.00,SummerDesignDay
8,18.49999810986028
11,604958588.896508
123,383102061.4267604
2,1, 7,21, 0, 5, 0.00,60.00,SummerDesignDay
545,27.26289157120003
2,1, 7,21, 0, 6, 0.00,60.00,SummerDesignDay
8,18.685989379882814
11,613171807.6625531
123,383102061.4267604
2,1, 7,21, 0, 6, 0.00,60.00,SummerDesignDay
545,26.487697077238577
2,1, 7,21, 0, 7, 0.00,60.00,SummerDesignDay
8,19.336990356445314
11,764893482.1727264
123,684714117.3219211
2,1, 7,21, 0, 7, 0.00,60.00,SummerDesignDay
545,24.416352592984503
2,1, 7,21, 0, 8, 0.00,60.00,SummerDesignDay
8,20.917992548817627
11,915056591.3237305
123,761230902.7647064
2,1, 7,21, 0, 8, 0.00,60.00,SummerDesignDay
545,24.123719877010158
2,1, 7,21, 0, 9, 0.00,60.00,SummerDesignDay
8,22.420023807696297
11,963870804.3893422
123,759215116.0089676
2,1, 7,21, 0, 9, 0.00,60.00,SummerDesignDay
545,24.192238318025539
2,1, 7,21, 0,10, 0.00,60.00,SummerDesignDay
8,22.854695006230427
11,964423226.6757122
123,737407455.5366248
2,1, 7,21, 0,10, 0.00,60.00,SummerDesignDay
545,24.490016145635165
2,1, 7,21, 0,11, 0.00,60.00,SummerDesignDay
8,23.232104587122938
11,969807983.1189901
123,734632119.0589988
2,1, 7,21, 0,11, 0.00,60.00,SummerDesignDay
545,24.733804129665879
2,1, 7,21, 0,12, 0.00,60.00,SummerDesignDay
8,23.480593542408348
11,983260324.446973
123,737434247.9579896
2,1, 7,21, 0,12, 0.00,60.00,SummerDesignDay
545,24.852981896289557
2,1, 7,21, 0,13, 0.00,60.00,SummerDesignDay
8,23.677626430315248
11,983869434.3771601
123,734660180.5937791
2,1, 7,21, 0,13, 0.00,60.00,SummerDesignDay
545,25.01190858865952
2,1, 7,21, 0,14, 0.00,60.00,SummerDesignDay
8,23.799986320868798
11,982196147.9116119
123,713299134.0917096
2,1, 7,21, 0,14, 0.00,60.00,SummerDesignDay
545,25.21614173805531
2,1, 7,21, 0,15, 0.00,60.00,SummerDesignDay
8,23.799986320868798
11,976364152.7519616
123,709643528.6045079
2,1, 7,21, 0,15, 0.00,60.00,SummerDesignDay
545,25.337777813773675
2,1, 7,21, 0,16, 0.00,60.00,SummerDesignDay
8,23.653081835774505
11,971670230.2594968
123,709624559.5166991
2,1, 7,21, 0,16, 0.00,60.00,SummerDesignDay
545,25.314153730284507
2,1, 7,21, 0,17, 0.00,60.00,SummerDesignDay
8,23.4558543827806
11,965322749.1713909
123,710116854.2479644
2,1, 7,21, 0,17, 0.00,60.00,SummerDesignDay
545,25.199936031927345
2,1, 7,21, 0,18, 0.00,60.00,SummerDesignDay
8,23.207119318496696
11,969075628.303536
123,734112177.5431376
2,1, 7,21, 0,18, 0.00,60.00,SummerDesignDay
545,24.96497688550142
2,1, 7,21, 0,19, 0.00,60.00,SummerDesignDay
8,22.82933132300861
11,975422076.3108304
123,759244172.954524
2,1, 7,21, 0,19, 0.00,60.00,SummerDesignDay
545,24.486715189098488
2,1, 7,21, 0,20, 0.00,60.00,SummerDesignDay
8,22.548645905899027
11,954560309.4636407
123,761217084.2753357
2,1, 7,21, 0,20, 0.00,60.00,SummerDesignDay
545,24.203698344460404
2,1, 7,21, 0,21, 0.00,60.00,SummerDesignDay
8,22.312987690310977
11,980424535.064027
123,757119370.8279545
2,1, 7,21, 0,21, 0.00,60.00,SummerDesignDay
545,24.097621260672427
2,1, 7,21, 0,22, 0.00,60.00,SummerDesignDay
8,21.475995587251039
11,953114920.8020926
123,759259042.5386694
2,1, 7,21, 0,22, 0.00,60.00,SummerDesignDay
545,24.038247393240213
2,1, 7,21, 0,23, 0.00,60.00,SummerDesignDay
8,20.824995071347869
11,914618062.5804771
123,737461140.3377552
2,1, 7,21, 0,23, 0.00,60.00,SummerDesignDay
545,24.004506972617535
2,1, 7,21, 0,24, 0.00,60.00,SummerDesignDay
8,20.173995840857065
11,866292369.1360556
123,701142747.1663563
2,1, 7,21, 0,24, 0.00,60.00,SummerDesignDay
545,23.985194861409217
3,1, 7,21, 0,SummerDesignDay
546,67.56846623044594,63.54931173952515, 8,60,73.42911033478701, 2,60
4,1, 7
7,22.812875000000003,18.5,21, 5,60,27.8,21,14,60
1,BUFFALO NIAGARA INTL AP ANN HTG 99.6% CONDNS DB,  42.93, -78.73,  -5.00, 215.00
2,1, 1,21, 0, 1, 0.00,60.00,WinterDesignDay
8,-16.3
11,138588865.91357626
123,2855995212.1466567
2,1, 1,21, 0, 1, 0.00,60.00,WinterDesignDay
545,21.0
2,1, 1,21, 0, 2, 0.00,60.00,WinterDesignDay
8,-16.3
11,115572773.00451845
123,2485476664.778393
2,1, 1,21, 0, 2, 0.00,60.00,WinterDesignDay
545,20.999999999999998
2,1, 1,21, 0, 3, 0.00,60.00,WinterDesignDay
8,-16.3
11,115572813.5114513
123,2476757023.746833
2,1, 1,21, 0, 3, 0.00,60.00,WinterDesignDay
545,21.00000000000004
2,1, 1,21, 0, 4, 0.00,60.00,WinterDesignDay
8,-16.3
11,115572853.6769084
123,2476757023.746828
2,1, 1,21, 0, 4, 0.00,60.00,WinterDesignDay
545,20.99999999999998
2,1, 1,21, 0, 5, 0.00,60.00,WinterDesignDay
8,-16.3
11,115572893.50455544
123,2476757023.746832
2,1, 1,21, 0, 5, 0.00,60.00,WinterDesignDay
545,20.99999999999999
2,1, 1,21, 0, 6, 0.00,60.00,WinterDesignDay
8,-16.3
11,115758906.72368002
123,2476757023.746832
2,1, 1,21, 0, 6, 0.00,60.00,WinterDesignDay
545,20.999999999999998
2,1, 1,21, 0, 7, 0.00,60.00,WinterDesignDay
8,-16.3
11,119874790.93090418
123,2853668878.667701
2,1, 1,21, 0, 7, 0.00,60.00,WinterDesignDay
545,21.0
2,1, 1,21, 0, 8, 0.00,60.00,WinterDesignDay
8,-16.3
11,119874831.37555757
123,2853669018.433502
2,1, 1,21, 0, 8, 0.00,60.00,WinterDesignDay
545,21.000000000000005
2,1, 1,21, 0, 9, 0.00,60.00,WinterDesignDay
8,-16.3
11,62918643.53548457
123,2853669157.667491
2,1, 1,21, 0, 9, 0.00,60.00,WinterDesignDay
545,21.0
2,1, 1,21, 0,10, 0.00,60.00,WinterDesignDay
8,-16.3
11,121483614.32914515
123,2927530080.63172
2,1, 1,21, 0,10, 0.00,60.00,WinterDesignDay
545,21.0
2,1, 1,21, 0,11, 0.00,60.00,WinterDesignDay
8,-16.3
11,114400986.14896529
123,2922346238.8647816
2,1, 1,21, 0,11, 0.00,60.00,WinterDesignDay
545,21.0
2,1, 1,21, 0,12, 0.00,60.00,WinterDesignDay
8,-16.3
11,120300979.43585629
123,2936372535.955889
2,1, 1,21, 0,12, 0.00,60.00,WinterDesignDay
545,21.0
2,1, 1,21, 0,13, 0.00,60.00,WinterDesignDay
8,-16.3
11,119914614.69133666
123,2936372535.955889
2,1, 1,21, 0,13, 0.00,60.00,WinterDesignDay
545,21.0
2,1, 1,21, 0,14, 0.00,60.00,WinterDesignDay
8,-16.3
11,114194648.97653085
123,2922348680.4219114
2,1, 1,21, 0,14, 0.00,60.00,WinterDesignDay
545,21.000000000000044
2,1, 1,21, 0,15, 0.00,60.00,WinterDesignDay
8,-16.3
11,108711399.72428189
123,2907586002.009388
2,1, 1,21, 0,15, 0.00,60.00,WinterDesignDay
545,20.99999999999998
2,1, 1,21, 0,16, 0.00,60.00,WinterDesignDay
8,-16.3
11,108470117.14490909
123,2913672236.6195576
2,1, 1,21, 0,16, 0.00,60.00,WinterDesignDay
545,20.999999999999987
2,1, 1,21, 0,17, 0.00,60.00,WinterDesignDay
8,-16.3
11,103172697.0132383
123,2900546780.575095
2,1, 1,21, 0,17, 0.00,60.00,WinterDesignDay
545,20.999999999999998
2,1, 1,21, 0,18, 0.00,60.00,WinterDesignDay
8,-16.3
11,165730458.99770085
123,2907585278.5281908
2,1, 1,21, 0,18, 0.00,60.00,WinterDesignDay
545,21.0
2,1, 1,21, 0,19, 0.00,60.00,WinterDesignDay
8,-16.3
11,185495869.19034405
123,2936372535.955889
2,1, 1,21, 0,19, 0.00,60.00,WinterDesignDay
545,21.0
2,1, 1,21, 0,20, 0.00,60.00,WinterDesignDay
8,-16.3
11,186465983.8225783
123,2936372535.9558899
2,1, 1,21, 0,20, 0.00,60.00,WinterDesignDay
545,21.000000000000044
2,1, 1,21, 0,21, 0.00,60.00,WinterDesignDay
8,-16.3
11,178496902.32763434
123,2936372535.955885
2,1, 1,21, 0,21, 0.00,60.00,WinterDesignDay
545,20.999999999999984
2,1, 1,21, 0,22, 0.00,60.00,WinterDesignDay
8,-16.3
11,184757979.8498444
123,2936372535.955889
2,1, 1,21, 0,22, 0.00,60.00,WinterDesignDay
545,20.99999999999999
2,1, 1,21, 0,23, 0.00,60.00,WinterDesignDay
8,-16.3
11,165759120.19169633
123,2921973309.6486985
2,1, 1,21, 0,23, 0.00,60.00,WinterDesignDay
545,20.999999999999994
2,1, 1,21, 0,24, 0.00,60.00,WinterDesignDay
8,-16.3
11,154225043.33734078
123,2875631315.8598816
2,1, 1,21, 0,24, 0.00,60.00,WinterDesignDay
545,20.999999999999998
3,1, 1,21, 0,WinterDesignDay
546,5.890092393490871,5.890092235236944, 1,60,5.890092580518238, 2,60
4,1, 1
7,-16.300000000000009,-16.3,21, 1,60,-16.3,21, 1,60
End of Data
 Number of Records Written=         294
