Program Version,EnergyPlus, Version 9.1.0-fafb9d5652, YMD=2020.03.22 22:58
1,5,Environment Title[],Latitude[deg],Longitude[deg],Time Zone[],Elevation[m]
2,8,Day of Simulation[],Month[],Day of Month[],DST Indicator[1=yes 0=no],Hour[],StartMinute[],EndMinute[],DayType
3,5,Cumulative Day of Simulation[],Month[],Day of Month[],DST Indicator[1=yes 0=no],DayType  ! When Daily Report Variables Requested
4,2,Cumulative Days of Simulation[],Month[]  ! When Monthly Report Variables Requested
5,1,Cumulative Days of Simulation[] ! When Run Period Report Variables Requested
6,1,Calendar Year of Simulation[] ! When Annual Report Variables Requested
7,9,Environment,Site Outdoor Air Drybulb Temperature [C] !Monthly [Value,Min,Day,Hour,Minute,Max,Day,Hour,Minute]
706,1,ZONE OFFICE WHOLEBUILDING - SM OFFICE A  - STORY GROUND,Zone Air Temperature [C] !Hourly
707,7,ZONE OFFICE WHOLEBUILDING - SM OFFICE A  - STORY GROUND,Zone Air Relative Humidity [%] !Daily [Value,Min,Hour,Minute,Max,Hour,Minute]
746,1,ZONE OFFICE WHOLEBUILDING - SM OFFICE A END_A - STORY GROUND,Zone Air Temperature [C] !Hourly
747,7,ZONE OFFICE WHOLEBUILDING - SM OFFICE A END_A - STORY GROUND,Zone Air Relative Humidity [%] !Daily [Value,Min,Hour,Minute,Max,Hour,Minute]
786,1,ZONE OFFICE WHOLEBUILDING - SM OFFICE A END_B - STORY GROUND,Zone Air Temperature [C] !Hourly
787,7,ZONE OFFICE WHOLEBUILDING - SM OFFICE A END_B - STORY GROUND,Zone Air Relative Humidity [%] !Daily [Value,Min,Hour,Minute,Max,Hour,Minute]
826,1,ZONE OFFICE WHOLEBUILDING - SM OFFICE B  - STORY GROUND,Zone Air Temperature [C] !Hourly
827,7,ZONE OFFICE WHOLEBUILDING - SM OFFICE B  - STORY GROUND,Zone Air Relative Humidity [%] !Daily [Value,Min,Hour,Minute,Max,Hour,Minute]
866,1,ZONE OFFICE WHOLEBUILDING - SM OFFICE B END_A - STORY GROUND,Zone Air Temperature [C] !Hourly
867,7,ZONE OFFICE WHOLEBUILDING - SM OFFICE B END_A - STORY GROUND,Zone Air Relative Humidity [%] !Daily [Value,Min,Hour,Minute,Max,Hour,Minute]
906,1,ZONE OFFICE WHOLEBUILDING - SM OFFICE B END_B - STORY GROUND,Zone Air Temperature [C] !Hourly
907,7,ZONE OFFICE WHOLEBUILDING - SM OFFICE B END_B - STORY GROUND,Zone Air Relative Humidity [%] !Daily [Value,Min,Hour,Minute,Max,Hour,Minute]
946,1,ZONE OFFICE WHOLEBUILDING - SM OFFICE C  - STORY GROUND,Zone Air Temperature [C] !Hourly
947,7,ZONE OFFICE WHOLEBUILDING - SM OFFICE C  - STORY GROUND,Zone Air Relative Humidity [%] !Daily [Value,Min,Hour,Minute,Max,Hour,Minute]
986,1,ZONE OFFICE WHOLEBUILDING - SM OFFICE C END_A - STORY GROUND,Zone Air Temperature [C] !Hourly
987,7,ZONE OFFICE WHOLEBUILDING - SM OFFICE C END_A - STORY GROUND,Zone Air Relative Humidity [%] !Daily [Value,Min,Hour,Minute,Max,Hour,Minute]
1026,1,ZONE OFFICE WHOLEBUILDING - SM OFFICE C END_B - STORY GROUND,Zone Air Temperature [C] !Hourly
1027,7,ZONE OFFICE WHOLEBUILDING - SM OFFICE C END_B - STORY GROUND,Zone Air Relative Humidity [%] !Daily [Value,Min,Hour,Minute,Max,Hour,Minute]
1179,1,ZONE OFFICE WHOLEBUILDING - SM OFFICE A  - STORY GROUND OFFICE WHOLEBUILDING - SM OFFICE PEOPLE,Zone Thermal Comfort Fanger Model PMV [] !TimeStep
1180,1,ZONE OFFICE WHOLEBUILDING - SM OFFICE A  - STORY GROUND OFFICE WHOLEBUILDING - SM OFFICE PEOPLE,Zone Thermal Comfort Fanger Model PPD [%] !TimeStep
1181,1,ZONE OFFICE WHOLEBUILDING - SM OFFICE A END_A - STORY GROUND OFFICE WHOLEBUILDING - SM OFFICE PEOPLE,Zone Thermal Comfort Fanger Model PMV [] !TimeStep
1182,1,ZONE OFFICE WHOLEBUILDING - SM OFFICE A END_A - STORY GROUND OFFICE WHOLEBUILDING - SM OFFICE PEOPLE,Zone Thermal Comfort Fanger Model PPD [%] !TimeStep
1183,1,ZONE OFFICE WHOLEBUILDING - SM OFFICE A END_B - STORY GROUND OFFICE WHOLEBUILDING - SM OFFICE PEOPLE,Zone Thermal Comfort Fanger Model PMV [] !TimeStep
1184,1,ZONE OFFICE WHOLEBUILDING - SM OFFICE A END_B - STORY GROUND OFFICE WHOLEBUILDING - SM OFFICE PEOPLE,Zone Thermal Comfort Fanger Model PPD [%] !TimeStep
1185,1,ZONE OFFICE WHOLEBUILDING - SM OFFICE B  - STORY GROUND OFFICE WHOLEBUILDING - SM OFFICE PEOPLE,Zone Thermal Comfort Fanger Model PMV [] !TimeStep
1186,1,ZONE OFFICE WHOLEBUILDING - SM OFFICE B  - STORY GROUND OFFICE WHOLEBUILDING - SM OFFICE PEOPLE,Zone Thermal Comfort Fanger Model PPD [%] !TimeStep
1187,1,ZONE OFFICE WHOLEBUILDING - SM OFFICE B END_A - STORY GROUND OFFICE WHOLEBUILDING - SM OFFICE PEOPLE,Zone Thermal Comfort Fanger Model PMV [] !TimeStep
1188,1,ZONE OFFICE WHOLEBUILDING - SM OFFICE B END_A - STORY GROUND OFFICE WHOLEBUILDING - SM OFFICE PEOPLE,Zone Thermal Comfort Fanger Model PPD [%] !TimeStep
1189,1,ZONE OFFICE WHOLEBUILDING - SM OFFICE B END_B - STORY GROUND OFFICE WHOLEBUILDING - SM OFFICE PEOPLE,Zone Thermal Comfort Fanger Model PMV [] !TimeStep
1190,1,ZONE OFFICE WHOLEBUILDING - SM OFFICE B END_B - STORY GROUND OFFICE WHOLEBUILDING - SM OFFICE PEOPLE,Zone Thermal Comfort Fanger Model PPD [%] !TimeStep
1191,1,ZONE OFFICE WHOLEBUILDING - SM OFFICE C  - STORY GROUND OFFICE WHOLEBUILDING - SM OFFICE PEOPLE,Zone Thermal Comfort Fanger Model PMV [] !TimeStep
1192,1,ZONE OFFICE WHOLEBUILDING - SM OFFICE C  - STORY GROUND OFFICE WHOLEBUILDING - SM OFFICE PEOPLE,Zone Thermal Comfort Fanger Model PPD [%] !TimeStep
1193,1,ZONE OFFICE WHOLEBUILDING - SM OFFICE C END_A - STORY GROUND OFFICE WHOLEBUILDING - SM OFFICE PEOPLE,Zone Thermal Comfort Fanger Model PMV [] !TimeStep
1194,1,ZONE OFFICE WHOLEBUILDING - SM OFFICE C END_A - STORY GROUND OFFICE WHOLEBUILDING - SM OFFICE PEOPLE,Zone Thermal Comfort Fanger Model PPD [%] !TimeStep
1195,1,ZONE OFFICE WHOLEBUILDING - SM OFFICE C END_B - STORY GROUND OFFICE WHOLEBUILDING - SM OFFICE PEOPLE,Zone Thermal Comfort Fanger Model PMV [] !TimeStep
1196,1,ZONE OFFICE WHOLEBUILDING - SM OFFICE C END_B - STORY GROUND OFFICE WHOLEBUILDING - SM OFFICE PEOPLE,Zone Thermal Comfort Fanger Model PPD [%] !TimeStep
1197,1,ZONE OFFICE WHOLEBUILDING - SM OFFICE A  - STORY GROUND,Zone Thermal Comfort ASHRAE 55 Simple Model Summer Clothes Not Comfortable Time [hr] !TimeStep
1198,1,ZONE OFFICE WHOLEBUILDING - SM OFFICE A  - STORY GROUND,Zone Thermal Comfort ASHRAE 55 Simple Model Winter Clothes Not Comfortable Time [hr] !TimeStep
1199,1,ZONE OFFICE WHOLEBUILDING - SM OFFICE A  - STORY GROUND,Zone Thermal Comfort ASHRAE 55 Simple Model Summer or Winter Clothes Not Comfortable Time [hr] !TimeStep
1200,1,ZONE OFFICE WHOLEBUILDING - SM OFFICE A END_A - STORY GROUND,Zone Thermal Comfort ASHRAE 55 Simple Model Summer Clothes Not Comfortable Time [hr] !TimeStep
1201,1,ZONE OFFICE WHOLEBUILDING - SM OFFICE A END_A - STORY GROUND,Zone Thermal Comfort ASHRAE 55 Simple Model Winter Clothes Not Comfortable Time [hr] !TimeStep
1202,1,ZONE OFFICE WHOLEBUILDING - SM OFFICE A END_A - STORY GROUND,Zone Thermal Comfort ASHRAE 55 Simple Model Summer or Winter Clothes Not Comfortable Time [hr] !TimeStep
1203,1,ZONE OFFICE WHOLEBUILDING - SM OFFICE A END_B - STORY GROUND,Zone Thermal Comfort ASHRAE 55 Simple Model Summer Clothes Not Comfortable Time [hr] !TimeStep
1204,1,ZONE OFFICE WHOLEBUILDING - SM OFFICE A END_B - STORY GROUND,Zone Thermal Comfort ASHRAE 55 Simple Model Winter Clothes Not Comfortable Time [hr] !TimeStep
1205,1,ZONE OFFICE WHOLEBUILDING - SM OFFICE A END_B - STORY GROUND,Zone Thermal Comfort ASHRAE 55 Simple Model Summer or Winter Clothes Not Comfortable Time [hr] !TimeStep
1206,1,ZONE OFFICE WHOLEBUILDING - SM OFFICE B  - STORY GROUND,Zone Thermal Comfort ASHRAE 55 Simple Model Summer Clothes Not Comfortable Time [hr] !TimeStep
1207,1,ZONE OFFICE WHOLEBUILDING - SM OFFICE B  - STORY GROUND,Zone Thermal Comfort ASHRAE 55 Simple Model Winter Clothes Not Comfortable Time [hr] !TimeStep
1208,1,ZONE OFFICE WHOLEBUILDING - SM OFFICE B  - STORY GROUND,Zone Thermal Comfort ASHRAE 55 Simple Model Summer or Winter Clothes Not Comfortable Time [hr] !TimeStep
1209,1,ZONE OFFICE WHOLEBUILDING - SM OFFICE B END_A - STORY GROUND,Zone Thermal Comfort ASHRAE 55 Simple Model Summer Clothes Not Comfortable Time [hr] !TimeStep
1210,1,ZONE OFFICE WHOLEBUILDING - SM OFFICE B END_A - STORY GROUND,Zone Thermal Comfort ASHRAE 55 Simple Model Winter Clothes Not Comfortable Time [hr] !TimeStep
1211,1,ZONE OFFICE WHOLEBUILDING - SM OFFICE B END_A - STORY GROUND,Zone Thermal Comfort ASHRAE 55 Simple Model Summer or Winter Clothes Not Comfortable Time [hr] !TimeStep
1212,1,ZONE OFFICE WHOLEBUILDING - SM OFFICE B END_B - STORY GROUND,Zone Thermal Comfort ASHRAE 55 Simple Model Summer Clothes Not Comfortable Time [hr] !TimeStep
1213,1,ZONE OFFICE WHOLEBUILDING - SM OFFICE B END_B - STORY GROUND,Zone Thermal Comfort ASHRAE 55 Simple Model Winter Clothes Not Comfortable Time [hr] !TimeStep
1214,1,ZONE OFFICE WHOLEBUILDING - SM OFFICE B END_B - STORY GROUND,Zone Thermal Comfort ASHRAE 55 Simple Model Summer or Winter Clothes Not Comfortable Time [hr] !TimeStep
1215,1,ZONE OFFICE WHOLEBUILDING - SM OFFICE C  - STORY GROUND,Zone Thermal Comfort ASHRAE 55 Simple Model Summer Clothes Not Comfortable Time [hr] !TimeStep
1216,1,ZONE OFFICE WHOLEBUILDING - SM OFFICE C  - STORY GROUND,Zone Thermal Comfort ASHRAE 55 Simple Model Winter Clothes Not Comfortable Time [hr] !TimeStep
1217,1,ZONE OFFICE WHOLEBUILDING - SM OFFICE C  - STORY GROUND,Zone Thermal Comfort ASHRAE 55 Simple Model Summer or Winter Clothes Not Comfortable Time [hr] !TimeStep
1218,1,ZONE OFFICE WHOLEBUILDING - SM OFFICE C END_A - STORY GROUND,Zone Thermal Comfort ASHRAE 55 Simple Model Summer Clothes Not Comfortable Time [hr] !TimeStep
1219,1,ZONE OFFICE WHOLEBUILDING - SM OFFICE C END_A - STORY GROUND,Zone Thermal Comfort ASHRAE 55 Simple Model Winter Clothes Not Comfortable Time [hr] !TimeStep
1220,1,ZONE OFFICE WHOLEBUILDING - SM OFFICE C END_A - STORY GROUND,Zone Thermal Comfort ASHRAE 55 Simple Model Summer or Winter Clothes Not Comfortable Time [hr] !TimeStep
1221,1,ZONE OFFICE WHOLEBUILDING - SM OFFICE C END_B - STORY GROUND,Zone Thermal Comfort ASHRAE 55 Simple Model Summer Clothes Not Comfortable Time [hr] !TimeStep
1222,1,ZONE OFFICE WHOLEBUILDING - SM OFFICE C END_B - STORY GROUND,Zone Thermal Comfort ASHRAE 55 Simple Model Winter Clothes Not Comfortable Time [hr] !TimeStep
1223,1,ZONE OFFICE WHOLEBUILDING - SM OFFICE C END_B - STORY GROUND,Zone Thermal Comfort ASHRAE 55 Simple Model Summer or Winter Clothes Not Comfortable Time [hr] !TimeStep
1401,1,Heating:Electricity [J] !TimeStep
1443,1,Heating:Gas [J] !TimeStep
1359,1,Cooling:Electricity [J] !TimeStep
45,1,InteriorLights:Electricity [J] !TimeStep
1270,1,ExteriorLights:Electricity [J] !TimeStep
282,1,InteriorEquipment:Electricity [J] !TimeStep
1237,1,Fans:Electricity [J] !TimeStep
1541,1,Pumps:Electricity [J] !TimeStep
496,1,WaterSystems:Gas [J] !TimeStep
547,1,WaterSystems:Water [m3] !TimeStep
9,1,Electricity:Facility [J] !TimeStep
472,1,Gas:Facility [J] !TimeStep
523,1,Water:Facility [m3] !TimeStep
End of Data Dictionary
1,RUN PERIOD 1,  39.74,-105.18,  -7.00,1829.00
2,1, 6, 1, 1, 1, 0.00,60.00,Friday
1179,-0.23082275008430459
1180,6.105464835001698
1181,-0.36705683407204267
1182,7.80458329423719
1183,-0.43596591858266778
1184,8.964442583175029
1185,0.016653381603577056
1186,5.0057410471492009
1187,-0.18965680995243479
1188,5.745769526282331
1189,-0.2615703472983502
1190,6.420492564744208
1191,-0.243490234745166
1192,6.230439503536857
1193,-0.38072062012026777
1194,8.018431341349072
1195,-0.4500273978250554
1196,9.22612771728673
1197,0.0
1198,0.0
1199,0.0
1200,0.0
1201,0.0
1202,0.0
1203,0.0
1204,0.0
1205,0.0
1206,0.0
1207,0.0
1208,0.0
1209,0.0
1210,0.0
1211,0.0
1212,0.0
1213,0.0
1214,0.0
1215,0.0
1216,0.0
1217,0.0
1218,0.0
1219,0.0
1220,0.0
1221,0.0
1222,0.0
1223,0.0
9,9007199.999999976
45,1943999.9999999912
282,3401999.999999989
472,0.0
496,0.0
523,0.0
547,0.0
1237,0.0
1270,3661199.9999999955
1359,0.0
1401,0.0
1443,0.0
1541,0.0
2,1, 6, 1, 1, 1, 0.00,60.00,Friday
706,21.941111433144095
746,21.424425756694157
786,21.14214991605322
826,22.77118072198103
866,22.0995505535829
906,21.77740792232632
946,21.871032299372666
986,21.374062992643176
1026,21.089996373935766
2,1, 6, 1, 1, 2, 0.00,60.00,Friday
1179,-0.19482848442271914
1180,5.787063476430632
1181,-0.3127714193064068
1182,7.033451454788391
1183,-0.3770358195134256
1184,7.959977294395628
1185,0.010568422933025403
1186,5.0023120828073079
1187,-0.16217049257691425
1188,5.545041628740435
1189,-0.23244496291571049
1190,6.121093217681391
1191,-0.20855995837312317
1192,5.902130989279044
1193,-0.32435159186283865
1194,7.187452199366518
1195,-0.38887206814525
1196,8.14980194131644
1197,0.0
1198,0.0
1199,0.0
1200,0.0
1201,0.0
1202,0.0
1203,0.0
1204,0.0
1205,0.0
1206,0.0
1207,0.0
1208,0.0
1209,0.0
1210,0.0
1211,0.0
1212,0.0
1213,0.0
1214,0.0
1215,0.0
1216,0.0
1217,0.0
1218,0.0
1219,0.0
1220,0.0
1221,0.0
1222,0.0
1223,0.0
9,9007199.999999976
45,1943999.9999999912
282,3401999.999999989
472,0.0
496,0.0
523,0.0
547,0.0
1237,0.0
1270,3661199.9999999955
1359,0.0
1401,0.0
1443,0.0
1541,0.0
2,1, 6, 1, 1, 2, 0.00,60.00,Friday
706,21.929800141847467
746,21.37344551299593
786,21.096140291449879
826,22.745665231217339
866,22.057749236817548
906,21.73931182449675
946,21.86016956023201
986,21.31611154440863
1026,21.03615885813203
2,1, 6, 1, 1, 3, 0.00,60.00,Friday
1179,-0.19206876305396809
1180,5.764889010496859
1181,-0.30853205827018306
1182,6.9784938641753488
1183,-0.37127256825973828
1184,7.869713209706575
1185,0.002846737436546667
1186,5.0001677551335039
1187,-0.1645871118894055
1188,5.561426066189981
1189,-0.23341205846644642
1190,6.130462738934298
1191,-0.20548301896796657
1192,5.875661011924237
1193,-0.3209708562750692
1194,7.141905640353315
1195,-0.38410474939932329
1196,8.072626247744495
1197,0.0
1198,0.0
1199,0.0
1200,0.0
1201,0.0
1202,0.0
1203,0.0
1204,0.0
1205,0.0
1206,0.0
1207,0.0
1208,0.0
1209,0.0
1210,0.0
1211,0.0
1212,0.0
1213,0.0
1214,0.0
1215,0.0
1216,0.0
1217,0.0
1218,0.0
1219,0.0
1220,0.0
1221,0.0
1222,0.0
1223,0.0
9,9007199.999999976
45,1943999.9999999912
282,3401999.999999989
472,0.0
496,0.0
523,0.0
547,0.0
1237,0.0
1270,3661199.9999999955
1359,0.0
1401,0.0
1443,0.0
1541,0.0
2,1, 6, 1, 1, 3, 0.00,60.00,Friday
706,21.821706648138908
746,21.230269601585979
786,20.96691845040836
826,22.703532355620589
866,21.941331305466848
906,21.63491536795333
946,21.759308855266469
986,21.17679852868004
1026,20.910892767348263
2,1, 6, 1, 1, 4, 0.00,60.00,Friday
1179,-0.209199038126944
1180,5.907678495810785
1181,-0.3278952859152261
1182,7.235714407030287
1183,-0.3877395487876873
1184,8.13138023878372
1185,-0.00903807775216997
1186,5.00169096483269
1187,-0.18362124263756528
1188,5.698990775150804
1189,-0.24989345142285505
1190,6.29617649999723
1191,-0.2214406321653896
1192,6.017242593161811
1193,-0.33966021180133845
1194,7.3997641548380959
1195,-0.39990136244558846
1196,8.332072601774187
1197,0.0
1198,0.0
1199,0.0
1200,0.0
1201,0.0
1202,0.0
1203,0.0
1204,0.0
1205,0.0
1206,0.0
1207,0.0
1208,0.0
1209,0.0
1210,0.0
1211,0.0
1212,0.0
1213,0.0
1214,0.0
1215,0.0
1216,0.0
1217,0.0
1218,0.0
1219,0.0
1220,0.0
1221,0.0
1222,0.0
1223,0.0
9,9007199.999999976
45,1943999.9999999912
282,3401999.999999989
472,0.0
496,0.0
523,0.0
547,0.0
1237,0.0
1270,3661199.9999999955
1359,0.0
1401,0.0
1443,0.0
1541,0.0
2,1, 6, 1, 1, 4, 0.00,60.00,Friday
706,21.698829298767554
746,21.077180400147257
786,20.826945892686458
826,22.640775380605445
866,21.813819644867978
906,21.52594065411373
946,21.64265206722278
986,21.028153956370575
1026,20.77527573860436
2,1, 6, 1, 1, 5, 0.00,60.00,Friday
1179,-0.23160550674889839
1180,6.1129921213118909
1181,-0.35670160519171559
1182,7.647817241578366
1183,-0.4135630485726535
1184,8.565062689261112
1185,-0.022797816392563818
1186,5.010759137972997
1187,-0.20783353326928923
1188,5.895846044292824
1189,-0.270461037718631
1190,6.518993703369716
1191,-0.24288813679255837
1192,6.224346826633848
1193,-0.3677285686905435
1194,7.814910349262931
1195,-0.4249965944282578
1196,8.766200171423279
1197,0.0
1198,0.0
1199,0.0
1200,0.0
1201,0.0
1202,0.0
1203,0.0
1204,0.0
1205,0.0
1206,0.0
1207,0.0
1208,0.0
1209,0.0
1210,0.0
1211,0.0
1212,0.0
1213,0.0
1214,0.0
1215,0.0
1216,0.0
1217,0.0
1218,0.0
1219,0.0
1220,0.0
1221,0.0
1222,0.0
1223,0.0
9,9547199.999999974
45,2483999.999999989
282,3401999.999999989
472,0.0
496,0.0
523,0.0
547,0.0
1237,0.0
1270,3661199.9999999955
1359,0.0
1401,0.0
1443,0.0
1541,0.0
2,1, 6, 1, 1, 5, 0.00,60.00,Friday
706,21.629252600271138
746,20.98070235217417
786,20.743755418872565
826,22.589755043254223
866,21.72623745257107
906,21.458398449343066
946,21.575622162890697
986,20.933133508609328
1026,20.693803359960179
2,1, 6, 1, 1, 6, 0.00,60.00,Friday
1179,-0.24221703091749936
1180,6.217573798388216
1181,-0.3731150321349146
1182,7.898415835389059
1183,-0.42737697982026459
1184,8.80878074988631
1185,-0.031394769671667769
1186,5.020403969153065
1187,-0.2225219275904423
1188,6.0272221140270549
1189,-0.2816607035450064
1190,6.647816733291677
1191,-0.2531952894750282
1192,6.330747418546352
1193,-0.3839360997616855
1194,8.069913842340299
1195,-0.43855843887187398
1196,9.01205062280033
1197,1.0
1198,0.0
1199,0.0
1200,1.0
1201,0.0
1202,0.0
1203,1.0
1204,0.0
1205,0.0
1206,1.0
1207,0.0
1208,0.0
1209,1.0
1210,0.0
1211,0.0
1212,1.0
1213,0.0
1214,0.0
1215,1.0
1216,0.0
1217,0.0
1218,1.0
1219,0.0
1220,0.0
1221,1.0
1222,0.0
1223,0.0
9,5885999.999999978
45,2483999.999999989
282,3401999.999999989
472,0.0
496,0.0
523,0.0
547,0.0
1237,0.0
1270,0.0
1359,0.0
1401,0.0
1443,0.0
1541,0.0
2,1, 6, 1, 1, 6, 0.00,60.00,Friday
706,21.89804914112268
746,21.34216310595684
786,21.09517855962112
826,22.631928143353578
866,21.96149799785242
906,21.685047934845046
946,21.8353981087443
986,21.28551709739908
1026,21.03802240704438
2,1, 6, 1, 1, 7, 0.00,60.00,Friday
1179,-0.182060743510699
1180,5.687143637042041
1181,-0.2951081478394768
1182,6.809486415783766
1183,-0.35036948240220835
1184,7.554205522289337
1185,-0.010097634852280734
1186,5.002110678802353
1187,-0.16942588471272489
1188,5.5949643495619629
1189,-0.22899301097127643
1190,6.087969628701444
1191,-0.19369851700774719
1192,5.777945659586322
1193,-0.3065566471814154
1194,6.953145125600869
1195,-0.3616794747518404
1196,7.722606327835649
1197,1.0
1198,0.0
1199,0.0
1200,1.0
1201,0.0
1202,0.0
1203,1.0
1204,0.0
1205,0.0
1206,1.0
1207,0.0
1208,0.0
1209,1.0
1210,0.0
1211,0.0
1212,1.0
1213,0.0
1214,0.0
1215,1.0
1216,0.0
1217,0.0
1218,1.0
1219,0.0
1220,0.0
1221,1.0
1222,0.0
1223,0.0
9,13299336.818840336
45,4535999.9999999799
282,3401999.999999989
472,0.0
496,0.0
523,0.0016718558041170396
547,0.0016718558041170396
1237,5274163.728995851
1270,0.0
1359,86885.46781919852
1401,0.0
1443,0.0
1541,287.62202531850417
2,1, 6, 1, 1, 7, 0.00,60.00,Friday
706,22.027014997969613
746,21.59656412761557
786,21.302488105044387
826,22.591949089606325
866,22.1755350806515
906,21.8490394514178
946,21.87088346990107
986,21.513273582668384
1026,21.200907887641834
2,1, 6, 1, 1, 8, 0.00,60.00,Friday
1179,-0.11649168710411649
1180,5.281082211224529
1181,-0.21022993226121967
1182,5.916663163577894
1183,-0.27275510173848419
1184,6.5449503386053469
1185,0.021935932329815438
1186,5.009960988004536
1187,-0.09554631512257747
1188,5.189054005848746
1189,-0.16149205383585189
1190,5.5404856475954749
1191,-0.14342070427587218
1192,5.426187789207219
1193,-0.2270441021460202
1194,6.0694894080984629
1195,-0.29208685063346248
1196,6.772498303192947
1197,1.0
1198,0.0
1199,0.0
1200,1.0
1201,0.0
1202,0.0
1203,1.0
1204,0.0
1205,0.0
1206,1.0
1207,0.0
1208,0.0
1209,1.0
1210,0.0
1211,0.0
1212,1.0
1213,0.0
1214,0.0
1215,1.0
1216,0.0
1217,0.0
1218,1.0
1219,0.0
1220,0.0
1221,1.0
1222,0.0
1223,0.0
9,22237025.30680868
45,9719999.999999956
282,6803999.999999978
472,2153902.3992995179
496,2153902.3992995179
523,0.0034056321935717469
547,0.0034056321935717469
1237,5274163.72899585
1270,0.0
1359,438573.9557875807
1401,0.0
1443,0.0
1541,287.6220253185042
2,1, 6, 1, 1, 8, 0.00,60.00,Friday
706,22.86418525100696
746,22.36460800021485
786,22.06565098123635
826,23.544591065236927
866,22.94959921616374
906,22.659998069215975
946,22.720648046275323
986,22.266206205456429
1026,21.96321211022831
2,1, 6, 1, 1, 9, 0.00,60.00,Friday
1179,0.04075481406140421
1180,5.034385159581049
1181,-0.06517536088297285
1182,5.087948897472316
1183,-0.12728455451455518
1184,5.335618071510069
1185,0.19784424831409626
1186,5.811659297694334
1187,0.052950058839217817
1188,5.058045471669345
1189,-0.007376577961738875
1190,5.0011263977407769
1191,0.015374819925906012
1192,5.004893341470208
1193,-0.08402244601971093
1194,5.146186965110232
1195,-0.1465405083127432
1196,5.4449486570550509
1197,1.0
1198,0.0
1199,0.0
1200,1.0
1201,0.0
1202,0.0
1203,1.0
1204,0.0
1205,0.0
1206,1.0
1207,0.0
1208,0.0
1209,1.0
1210,0.0
1211,0.0
1212,1.0
1213,0.0
1214,0.0
1215,1.0
1216,0.0
1217,0.0
1218,1.0
1219,0.0
1220,0.0
1221,1.0
1222,0.0
1223,0.0
9,22083878.859716994
45,9719999.999999956
282,6803999.999999978
472,2100926.694864094
496,1559020.637207435
523,0.00396291746161076
547,0.00396291746161076
1237,5274163.728995851
1270,0.0
1359,285427.5086958978
1401,0.0
1443,541906.0576566588
1541,287.62202531850417
2,1, 6, 1, 1, 9, 0.00,60.00,Friday
706,23.253790538733634
746,22.786320383503779
786,22.48625522283155
826,23.8302030598818
866,23.348293556997875
906,23.052125812610539
946,23.10189255019482
986,22.68922635805353
1026,22.377953757985354
2,1, 6, 1, 1,10, 0.00,60.00,Friday
1179,0.12184303313918164
1180,5.307517164865288
1181,0.019983916193504968
1182,5.008267035934551
1183,-0.04081972057357427
1184,5.034494779262545
1185,0.26185589595202715
1186,6.423604466460262
1187,0.13594158470997465
1188,5.382861883143349
1189,0.07561989136160523
1190,5.118403388760967
1191,0.09605481281028849
1192,5.1910724794676359
1193,0.0018263935659583134
1194,5.0000690509467919
1195,-0.06028814184730052
1196,5.075251541255625
1197,1.0
1198,0.0
1199,0.0
1200,1.0
1201,0.0
1202,0.0
1203,1.0
1204,0.0
1205,0.0
1206,1.0
1207,0.0
1208,0.0
1209,1.0
1210,0.0
1211,0.0
1212,1.0
1213,0.0
1214,0.0
1215,1.0
1216,0.0
1217,0.0
1218,1.0
1219,0.0
1220,0.0
1221,1.0
1222,0.0
1223,0.0
9,22094632.4492431
45,9719999.999999956
282,6803999.999999978
472,279404.60372601027
496,279404.60372601027
523,0.00396291746161076
547,0.00396291746161076
1237,5274163.728995851
1270,0.0
1359,296181.09822199828
1401,0.0
1443,0.0
1541,287.62202531850417
2,1, 6, 1, 1,10, 0.00,60.00,Friday
706,23.468002517679815
746,23.03799575747195
786,22.695250597907536
826,23.883820913686216
866,23.627934516405728
906,23.29049217363613
946,23.305602706022499
986,22.943245464013299
1026,22.575995934506385
2,1, 6, 1, 1,11, 0.00,60.00,Friday
1179,0.17922247566930478
1180,5.66585645287401
1181,0.0840649459646842
1182,5.146334936662669
1183,0.016916155479267199
1184,5.005923654967006
1185,0.29002517150066439
1186,6.7474796005910779
1187,0.20317202588854353
1188,5.856040754470158
1189,0.13681173786140694
1190,5.387782961214697
1191,0.15239045135824343
1192,5.481219528326434
1193,0.0663734467852231
1194,5.09121270014866
1195,-0.0038855186854744219
1196,5.000312520948526
1197,1.0
1198,0.0
1199,0.0
1200,1.0
1201,0.0
1202,0.0
1203,1.0
1204,0.0
1205,0.0
1206,0.0
1207,0.0
1208,0.0
1209,1.0
1210,0.0
1211,0.0
1212,1.0
1213,0.0
1214,0.0
1215,1.0
1216,0.0
1217,0.0
1218,1.0
1219,0.0
1220,0.0
1221,1.0
1222,0.0
1223,0.0
9,22274372.91713805
45,9719999.999999956
282,6803999.999999978
472,2209901.013023541
496,2209901.013023541
523,0.005077487997688786
547,0.005077487997688786
1237,5274163.728995851
1270,0.0
1359,475921.56611695149
1401,0.0
1443,0.0
1541,287.62202531850417
2,1, 6, 1, 1,11, 0.00,60.00,Friday
706,23.766197569193268
746,23.356208886854586
786,23.04804900783075
826,23.888525274836949
866,23.825127879308256
906,23.59956992655785
946,23.60579022954363
986,23.264879535867974
1026,22.93905877817397
2,1, 6, 1, 1,12, 0.00,60.00,Friday
1179,0.25007705951597877
1180,6.298086879183941
1181,0.1635458731007961
1182,5.554336720734867
1183,0.10184699018517375
1184,5.214821816316444
1185,0.30279060648100539
1186,6.9052761813318999
1187,0.257452296154692
1188,6.375995735889603
1189,0.2094156864580564
1190,5.909562983193709
1191,0.2232737884433806
1192,6.034190093210583
1193,0.14638293003792023
1194,5.443991347749176
1195,0.08210991147985572
1196,5.1396056606998858
1197,1.0
1198,0.0
1199,0.0
1200,1.0
1201,0.0
1202,0.0
1203,1.0
1204,0.0
1205,0.0
1206,0.0
1207,0.0
1208,0.0
1209,1.0
1210,0.0
1211,0.0
1212,1.0
1213,0.0
1214,0.0
1215,1.0
1216,0.0
1217,0.0
1218,1.0
1219,0.0
1220,0.0
1221,1.0
1222,0.0
1223,0.0
9,20982463.746913256
45,8639999.999999959
282,6395759.9999999799
472,1566038.523187051
496,1566038.523187051
523,0.006192058533766812
547,0.006192058533766812
1237,5274163.728995851
1270,0.0
1359,672252.3958921547
1401,0.0
1443,0.0
1541,287.62202531850417
2,1, 6, 1, 1,12, 0.00,60.00,Friday
706,23.86347787150006
746,23.71997034544212
786,23.420847497793539
826,23.889524857687456
866,23.87357392565734
906,23.82692173280573
946,23.853895853652845
986,23.629733225155474
1026,23.31255360121477
2,1, 6, 1, 1,13, 0.00,60.00,Friday
1179,0.41125593787225347
1180,8.525155698838049
1181,0.370593997063826
1182,7.859178634398418
1183,0.3044339419677085
1184,6.926090317343096
1185,0.38911356410732858
1186,8.15373723375808
1187,0.37311341586895938
1188,7.898390593121832
1189,0.33900362191069408
1190,7.39045385420053
1191,0.3654338259746424
1192,7.7797109937851449
1193,0.32123476758728555
1194,7.14544372034203
1195,0.2551402489477753
1196,6.351326093395144
1197,0.0
1198,1.0
1199,0.0
1200,0.0
1201,1.0
1202,0.0
1203,0.0
1204,0.0
1205,0.0
1206,0.0
1207,1.0
1208,0.0
1209,0.0
1210,1.0
1211,0.0
1212,0.0
1213,0.0
1214,0.0
1215,0.0
1216,1.0
1217,0.0
1218,0.0
1219,0.0
1220,0.0
1221,0.0
1222,0.0
1223,0.0
9,26469379.516583828
45,9719999.999999956
282,6803999.999999978
472,458674.20704687
496,458674.20704687
523,0.005634773265727799
547,0.005634773265727799
1237,5274163.728995851
1270,0.0
1359,4670928.165562724
1401,0.0
1443,0.0
1541,287.62202531850417
2,1, 6, 1, 1,13, 0.00,60.00,Friday
706,23.8826893097231
746,23.84054667373843
786,23.761256318418579
826,23.888814760392039
866,23.88479335955597
906,23.875314326182904
946,23.882048681019506
986,23.815978719670527
1026,23.739020452311569
2,1, 6, 1, 1,14, 0.00,60.00,Friday
1179,0.4045521199804964
1180,8.41049079969855
1181,0.4050044574146964
1182,8.418167229896313
1183,0.3697984094124067
1184,7.846852422455555
1185,0.3947268858554774
1186,8.245911291660434
1187,0.3995248443309482
1188,8.325764483248392
1189,0.3752468311863441
1190,7.931806506622323
1191,0.39253425483955736
1192,8.20974669908395
1193,0.3884575010036438
1194,8.14305218161634
1195,0.35521187762696596
1196,7.6256401888661
1197,0.0
1198,1.0
1199,0.0
1200,0.0
1201,1.0
1202,0.0
1203,0.0
1204,1.0
1205,0.0
1206,0.0
1207,1.0
1208,0.0
1209,0.0
1210,1.0
1211,0.0
1212,0.0
1213,1.0
1214,0.0
1215,0.0
1216,1.0
1217,0.0
1218,0.0
1219,1.0
1220,0.0
1221,0.0
1222,1.0
1223,0.0
9,27638300.385363424
45,9719999.999999956
282,6803999.999999978
472,2209901.013023541
496,2209901.013023541
523,0.0034056321935717469
547,0.0034056321935717469
1237,5274163.728995851
1270,0.0
1359,5839849.034342325
1401,0.0
1443,0.0
1541,287.62202531850417
2,1, 6, 1, 1,14, 0.00,60.00,Friday
706,23.88801783150665
746,23.877628913574147
786,23.8611973507497
826,23.888753752212453
866,23.888400413488303
906,23.886728916396398
946,23.88803863697636
986,23.871369330162307
1026,23.856554702268477
2,1, 6, 1, 1,15, 0.00,60.00,Friday
1179,0.36112865772525318
1180,7.714278761699049
1181,0.3541988518852936
1182,7.610613579540669
1183,0.3397416666494802
1184,7.400920443523418
1185,0.37035335256172377
1186,7.85544743019959
1187,0.3619943088834417
1188,7.7273719735828199
1189,0.35090350699702907
1190,7.562034474995102
1191,0.35957010337077807
1192,7.690785649808291
1193,0.3499982154718291
1194,7.548769791101876
1195,0.33693357559693395
1196,7.361220913934744
1197,0.0
1198,1.0
1199,0.0
1200,0.0
1201,1.0
1202,0.0
1203,0.0
1204,0.0
1205,0.0
1206,0.0
1207,1.0
1208,0.0
1209,0.0
1210,1.0
1211,0.0
1212,0.0
1213,1.0
1214,0.0
1215,0.0
1216,1.0
1217,0.0
1218,0.0
1219,1.0
1220,0.0
1221,0.0
1222,0.0
1223,0.0
9,26951575.459862014
45,9719999.999999956
282,6803999.999999978
472,956664.9657069042
496,956664.9657069042
523,0.0034056321935717469
547,0.0034056321935717469
1237,5274163.728995851
1270,0.0
1359,5153124.108840912
1401,0.0
1443,0.0
1541,287.62202531850417
2,1, 6, 1, 1,15, 0.00,60.00,Friday
706,23.88881178675789
746,23.884852848214999
786,23.878304608734156
826,23.888566907862676
866,23.88908086876243
906,23.888458069258438
946,23.888692897627739
986,23.88237962928764
1026,23.876743655654793
2,1, 6, 1, 1,16, 0.00,60.00,Friday
1179,0.32635199469549039
1180,7.214630582682702
1181,0.3136229476403218
1182,7.044582132812209
1183,0.30345599733423686
1184,6.913690118661748
1185,0.34345861329446289
1186,7.453984103842558
1187,0.3295450688913465
1188,7.258364805938953
1189,0.32156667864341528
1190,7.149897617738674
1191,0.32511053310459839
1192,7.1977435437299139
1193,0.31076341199355
1194,7.007325518668566
1195,0.3021898202141533
1196,6.897695261292839
1197,0.0
1198,0.0
1199,0.0
1200,0.0
1201,0.0
1202,0.0